+ 0 0 4 tcp 1000 ------- 0 0.0 2.0 0 0
- 0 0 4 tcp 1000 ------- 0 0.0 2.0 0 0
r 0.0028 0 4 tcp 1000 ------- 0 0.0 2.0 0 0
+ 0.0028 4 5 tcp 1000 ------- 0 0.0 2.0 0 0
- 0.0028 4 5 tcp 1000 ------- 0 0.0 2.0 0 0
r 0.028133 4 5 tcp 1000 ------- 0 0.0 2.0 0 0
+ 0.028133 5 2 tcp 1000 ------- 0 0.0 2.0 0 0
- 0.028133 5 2 tcp 1000 ------- 0 0.0 2.0 0 0
r 0.032933 5 2 tcp 1000 ------- 0 0.0 2.0 0 0
+ 0.032933 2 5 ack 40 ------- 0 2.0 0.0 0 1
- 0.032933 2 5 ack 40 ------- 0 2.0 0.0 0 1
r 0.036965 2 5 ack 40 ------- 0 2.0 0.0 0 1
+ 0.036965 5 4 ack 40 ------- 0 2.0 0.0 0 1
- 0.036965 5 4 ack 40 ------- 0 2.0 0.0 0 1
r 0.057179 5 4 ack 40 ------- 0 2.0 0.0 0 1
+ 0.057179 4 0 ack 40 ------- 0 2.0 0.0 0 1
- 0.057179 4 0 ack 40 ------- 0 2.0 0.0 0 1
r 0.059211 4 0 ack 40 ------- 0 2.0 0.0 0 1
+ 0.059211 0 4 tcp 1000 ------- 0 0.0 2.0 1 2
- 0.059211 0 4 tcp 1000 ------- 0 0.0 2.0 1 2
r 0.062011 0 4 tcp 1000 ------- 0 0.0 2.0 1 2
+ 0.062011 4 5 tcp 1000 ------- 0 0.0 2.0 1 2
- 0.062011 4 5 tcp 1000 ------- 0 0.0 2.0 1 2
r 0.087344 4 5 tcp 1000 ------- 0 0.0 2.0 1 2
+ 0.087344 5 2 tcp 1000 ------- 0 0.0 2.0 1 2
- 0.087344 5 2 tcp 1000 ------- 0 0.0 2.0 1 2
r 0.092144 5 2 tcp 1000 ------- 0 0.0 2.0 1 2
+ 0.092144 2 5 ack 40 ------- 0 2.0 0.0 1 3
- 0.092144 2 5 ack 40 ------- 0 2.0 0.0 1 3
r 0.096176 2 5 ack 40 ------- 0 2.0 0.0 1 3
+ 0.096176 5 4 ack 40 ------- 0 2.0 0.0 1 3
- 0.096176 5 4 ack 40 ------- 0 2.0 0.0 1 3
r 0.116389 5 4 ack 40 ------- 0 2.0 0.0 1 3
+ 0.116389 4 0 ack 40 ------- 0 2.0 0.0 1 3
- 0.116389 4 0 ack 40 ------- 0 2.0 0.0 1 3
r 0.118421 4 0 ack 40 ------- 0 2.0 0.0 1 3
+ 0.118421 0 4 tcp 1000 ------- 0 0.0 2.0 2 4
- 0.118421 0 4 tcp 1000 ------- 0 0.0 2.0 2 4
+ 0.118421 0 4 tcp 1000 ------- 0 0.0 2.0 3 5
+ 0.118421 0 4 tcp 1000 ------- 0 0.0 2.0 4 6
- 0.119221 0 4 tcp 1000 ------- 0 0.0 2.0 3 5
- 0.120021 0 4 tcp 1000 ------- 0 0.0 2.0 4 6
r 0.121221 0 4 tcp 1000 ------- 0 0.0 2.0 2 4
+ 0.121221 4 5 tcp 1000 ------- 0 0.0 2.0 2 4
- 0.121221 4 5 tcp 1000 ------- 0 0.0 2.0 2 4
r 0.122021 0 4 tcp 1000 ------- 0 0.0 2.0 3 5
+ 0.122021 4 5 tcp 1000 ------- 0 0.0 2.0 3 5
r 0.122821 0 4 tcp 1000 ------- 0 0.0 2.0 4 6
+ 0.122821 4 5 tcp 1000 ------- 0 0.0 2.0 4 6
- 0.126555 4 5 tcp 1000 ------- 0 0.0 2.0 3 5
- 0.131888 4 5 tcp 1000 ------- 0 0.0 2.0 4 6
r 0.146555 4 5 tcp 1000 ------- 0 0.0 2.0 2 4
+ 0.146555 5 2 tcp 1000 ------- 0 0.0 2.0 2 4
- 0.146555 5 2 tcp 1000 ------- 0 0.0 2.0 2 4
r 0.151355 5 2 tcp 1000 ------- 0 0.0 2.0 2 4
+ 0.151355 2 5 ack 40 ------- 0 2.0 0.0 2 7
- 0.151355 2 5 ack 40 ------- 0 2.0 0.0 2 7
r 0.151888 4 5 tcp 1000 ------- 0 0.0 2.0 3 5
+ 0.151888 5 2 tcp 1000 ------- 0 0.0 2.0 3 5
- 0.151888 5 2 tcp 1000 ------- 0 0.0 2.0 3 5
r 0.155387 2 5 ack 40 ------- 0 2.0 0.0 2 7
+ 0.155387 5 4 ack 40 ------- 0 2.0 0.0 2 7
- 0.155387 5 4 ack 40 ------- 0 2.0 0.0 2 7
r 0.156688 5 2 tcp 1000 ------- 0 0.0 2.0 3 5
+ 0.156688 2 5 ack 40 ------- 0 2.0 0.0 3 8
- 0.156688 2 5 ack 40 ------- 0 2.0 0.0 3 8
r 0.157221 4 5 tcp 1000 ------- 0 0.0 2.0 4 6
+ 0.157221 5 2 tcp 1000 ------- 0 0.0 2.0 4 6
- 0.157221 5 2 tcp 1000 ------- 0 0.0 2.0 4 6
r 0.16072 2 5 ack 40 ------- 0 2.0 0.0 3 8
+ 0.16072 5 4 ack 40 ------- 0 2.0 0.0 3 8
- 0.16072 5 4 ack 40 ------- 0 2.0 0.0 3 8
r 0.162021 5 2 tcp 1000 ------- 0 0.0 2.0 4 6
+ 0.162021 2 5 ack 40 ------- 0 2.0 0.0 4 9
- 0.162021 2 5 ack 40 ------- 0 2.0 0.0 4 9
r 0.166053 2 5 ack 40 ------- 0 2.0 0.0 4 9
+ 0.166053 5 4 ack 40 ------- 0 2.0 0.0 4 9
- 0.166053 5 4 ack 40 ------- 0 2.0 0.0 4 9
r 0.1756 5 4 ack 40 ------- 0 2.0 0.0 2 7
+ 0.1756 4 0 ack 40 ------- 0 2.0 0.0 2 7
- 0.1756 4 0 ack 40 ------- 0 2.0 0.0 2 7
r 0.177632 4 0 ack 40 ------- 0 2.0 0.0 2 7
+ 0.177632 0 4 tcp 1000 ------- 0 0.0 2.0 5 10
- 0.177632 0 4 tcp 1000 ------- 0 0.0 2.0 5 10
r 0.180432 0 4 tcp 1000 ------- 0 0.0 2.0 5 10
+ 0.180432 4 5 tcp 1000 ------- 0 0.0 2.0 5 10
- 0.180432 4 5 tcp 1000 ------- 0 0.0 2.0 5 10
r 0.180933 5 4 ack 40 ------- 0 2.0 0.0 3 8
+ 0.180933 4 0 ack 40 ------- 0 2.0 0.0 3 8
- 0.180933 4 0 ack 40 ------- 0 2.0 0.0 3 8
r 0.182965 4 0 ack 40 ------- 0 2.0 0.0 3 8
+ 0.182965 0 4 tcp 1000 ------- 0 0.0 2.0 6 11
- 0.182965 0 4 tcp 1000 ------- 0 0.0 2.0 6 11
r 0.185765 0 4 tcp 1000 ------- 0 0.0 2.0 6 11
+ 0.185765 4 5 tcp 1000 ------- 0 0.0 2.0 6 11
- 0.185765 4 5 tcp 1000 ------- 0 0.0 2.0 6 11
r 0.186267 5 4 ack 40 ------- 0 2.0 0.0 4 9
+ 0.186267 4 0 ack 40 ------- 0 2.0 0.0 4 9
- 0.186267 4 0 ack 40 ------- 0 2.0 0.0 4 9
r 0.188299 4 0 ack 40 ------- 0 2.0 0.0 4 9
+ 0.188299 0 4 tcp 1000 ------- 0 0.0 2.0 7 12
- 0.188299 0 4 tcp 1000 ------- 0 0.0 2.0 7 12
r 0.191099 0 4 tcp 1000 ------- 0 0.0 2.0 7 12
+ 0.191099 4 5 tcp 1000 ------- 0 0.0 2.0 7 12
- 0.191099 4 5 tcp 1000 ------- 0 0.0 2.0 7 12
r 0.205765 4 5 tcp 1000 ------- 0 0.0 2.0 5 10
+ 0.205765 5 2 tcp 1000 ------- 0 0.0 2.0 5 10
- 0.205765 5 2 tcp 1000 ------- 0 0.0 2.0 5 10
r 0.210565 5 2 tcp 1000 ------- 0 0.0 2.0 5 10
+ 0.210565 2 5 ack 40 ------- 0 2.0 0.0 5 13
- 0.210565 2 5 ack 40 ------- 0 2.0 0.0 5 13
r 0.211099 4 5 tcp 1000 ------- 0 0.0 2.0 6 11
+ 0.211099 5 2 tcp 1000 ------- 0 0.0 2.0 6 11
- 0.211099 5 2 tcp 1000 ------- 0 0.0 2.0 6 11
r 0.214597 2 5 ack 40 ------- 0 2.0 0.0 5 13
+ 0.214597 5 4 ack 40 ------- 0 2.0 0.0 5 13
- 0.214597 5 4 ack 40 ------- 0 2.0 0.0 5 13
r 0.215899 5 2 tcp 1000 ------- 0 0.0 2.0 6 11
+ 0.215899 2 5 ack 40 ------- 0 2.0 0.0 6 14
- 0.215899 2 5 ack 40 ------- 0 2.0 0.0 6 14
r 0.216432 4 5 tcp 1000 ------- 0 0.0 2.0 7 12
+ 0.216432 5 2 tcp 1000 ------- 0 0.0 2.0 7 12
- 0.216432 5 2 tcp 1000 ------- 0 0.0 2.0 7 12
r 0.219931 2 5 ack 40 ------- 0 2.0 0.0 6 14
+ 0.219931 5 4 ack 40 ------- 0 2.0 0.0 6 14
- 0.219931 5 4 ack 40 ------- 0 2.0 0.0 6 14
r 0.221232 5 2 tcp 1000 ------- 0 0.0 2.0 7 12
+ 0.221232 2 5 ack 40 ------- 0 2.0 0.0 7 15
- 0.221232 2 5 ack 40 ------- 0 2.0 0.0 7 15
r 0.225264 2 5 ack 40 ------- 0 2.0 0.0 7 15
+ 0.225264 5 4 ack 40 ------- 0 2.0 0.0 7 15
- 0.225264 5 4 ack 40 ------- 0 2.0 0.0 7 15
r 0.234811 5 4 ack 40 ------- 0 2.0 0.0 5 13
+ 0.234811 4 0 ack 40 ------- 0 2.0 0.0 5 13
- 0.234811 4 0 ack 40 ------- 0 2.0 0.0 5 13
r 0.236843 4 0 ack 40 ------- 0 2.0 0.0 5 13
+ 0.236843 0 4 tcp 1000 ------- 0 0.0 2.0 8 16
- 0.236843 0 4 tcp 1000 ------- 0 0.0 2.0 8 16
+ 0.236843 0 4 tcp 1000 ------- 0 0.0 2.0 9 17
- 0.237643 0 4 tcp 1000 ------- 0 0.0 2.0 9 17
r 0.239643 0 4 tcp 1000 ------- 0 0.0 2.0 8 16
+ 0.239643 4 5 tcp 1000 ------- 0 0.0 2.0 8 16
- 0.239643 4 5 tcp 1000 ------- 0 0.0 2.0 8 16
r 0.240144 5 4 ack 40 ------- 0 2.0 0.0 6 14
+ 0.240144 4 0 ack 40 ------- 0 2.0 0.0 6 14
- 0.240144 4 0 ack 40 ------- 0 2.0 0.0 6 14
r 0.240443 0 4 tcp 1000 ------- 0 0.0 2.0 9 17
+ 0.240443 4 5 tcp 1000 ------- 0 0.0 2.0 9 17
r 0.242176 4 0 ack 40 ------- 0 2.0 0.0 6 14
+ 0.242176 0 4 tcp 1000 ------- 0 0.0 2.0 10 18
- 0.242176 0 4 tcp 1000 ------- 0 0.0 2.0 10 18
+ 0.242176 0 4 tcp 1000 ------- 0 0.0 2.0 11 19
- 0.242976 0 4 tcp 1000 ------- 0 0.0 2.0 11 19
- 0.244976 4 5 tcp 1000 ------- 0 0.0 2.0 9 17
r 0.244976 0 4 tcp 1000 ------- 0 0.0 2.0 10 18
+ 0.244976 4 5 tcp 1000 ------- 0 0.0 2.0 10 18
r 0.245477 5 4 ack 40 ------- 0 2.0 0.0 7 15
+ 0.245477 4 0 ack 40 ------- 0 2.0 0.0 7 15
- 0.245477 4 0 ack 40 ------- 0 2.0 0.0 7 15
r 0.245776 0 4 tcp 1000 ------- 0 0.0 2.0 11 19
+ 0.245776 4 5 tcp 1000 ------- 0 0.0 2.0 11 19
r 0.247509 4 0 ack 40 ------- 0 2.0 0.0 7 15
+ 0.247509 0 4 tcp 1000 ------- 0 0.0 2.0 12 20
- 0.247509 0 4 tcp 1000 ------- 0 0.0 2.0 12 20
+ 0.247509 0 4 tcp 1000 ------- 0 0.0 2.0 13 21
- 0.248309 0 4 tcp 1000 ------- 0 0.0 2.0 13 21
- 0.250309 4 5 tcp 1000 ------- 0 0.0 2.0 10 18
r 0.250309 0 4 tcp 1000 ------- 0 0.0 2.0 12 20
+ 0.250309 4 5 tcp 1000 ------- 0 0.0 2.0 12 20
r 0.251109 0 4 tcp 1000 ------- 0 0.0 2.0 13 21
+ 0.251109 4 5 tcp 1000 ------- 0 0.0 2.0 13 21
- 0.255643 4 5 tcp 1000 ------- 0 0.0 2.0 11 19
- 0.260976 4 5 tcp 1000 ------- 0 0.0 2.0 12 20
r 0.264976 4 5 tcp 1000 ------- 0 0.0 2.0 8 16
+ 0.264976 5 2 tcp 1000 ------- 0 0.0 2.0 8 16
- 0.264976 5 2 tcp 1000 ------- 0 0.0 2.0 8 16
- 0.266309 4 5 tcp 1000 ------- 0 0.0 2.0 13 21
r 0.269776 5 2 tcp 1000 ------- 0 0.0 2.0 8 16
+ 0.269776 2 5 ack 40 ------- 0 2.0 0.0 8 22
- 0.269776 2 5 ack 40 ------- 0 2.0 0.0 8 22
r 0.270309 4 5 tcp 1000 ------- 0 0.0 2.0 9 17
+ 0.270309 5 2 tcp 1000 ------- 0 0.0 2.0 9 17
- 0.270309 5 2 tcp 1000 ------- 0 0.0 2.0 9 17
r 0.273808 2 5 ack 40 ------- 0 2.0 0.0 8 22
+ 0.273808 5 4 ack 40 ------- 0 2.0 0.0 8 22
- 0.273808 5 4 ack 40 ------- 0 2.0 0.0 8 22
r 0.275109 5 2 tcp 1000 ------- 0 0.0 2.0 9 17
+ 0.275109 2 5 ack 40 ------- 0 2.0 0.0 9 23
- 0.275109 2 5 ack 40 ------- 0 2.0 0.0 9 23
r 0.275643 4 5 tcp 1000 ------- 0 0.0 2.0 10 18
+ 0.275643 5 2 tcp 1000 ------- 0 0.0 2.0 10 18
- 0.275643 5 2 tcp 1000 ------- 0 0.0 2.0 10 18
r 0.279141 2 5 ack 40 ------- 0 2.0 0.0 9 23
+ 0.279141 5 4 ack 40 ------- 0 2.0 0.0 9 23
- 0.279141 5 4 ack 40 ------- 0 2.0 0.0 9 23
r 0.280443 5 2 tcp 1000 ------- 0 0.0 2.0 10 18
+ 0.280443 2 5 ack 40 ------- 0 2.0 0.0 10 24
- 0.280443 2 5 ack 40 ------- 0 2.0 0.0 10 24
r 0.280976 4 5 tcp 1000 ------- 0 0.0 2.0 11 19
+ 0.280976 5 2 tcp 1000 ------- 0 0.0 2.0 11 19
- 0.280976 5 2 tcp 1000 ------- 0 0.0 2.0 11 19
r 0.284475 2 5 ack 40 ------- 0 2.0 0.0 10 24
+ 0.284475 5 4 ack 40 ------- 0 2.0 0.0 10 24
- 0.284475 5 4 ack 40 ------- 0 2.0 0.0 10 24
r 0.285776 5 2 tcp 1000 ------- 0 0.0 2.0 11 19
+ 0.285776 2 5 ack 40 ------- 0 2.0 0.0 11 25
- 0.285776 2 5 ack 40 ------- 0 2.0 0.0 11 25
r 0.286309 4 5 tcp 1000 ------- 0 0.0 2.0 12 20
+ 0.286309 5 2 tcp 1000 ------- 0 0.0 2.0 12 20
- 0.286309 5 2 tcp 1000 ------- 0 0.0 2.0 12 20
r 0.289808 2 5 ack 40 ------- 0 2.0 0.0 11 25
+ 0.289808 5 4 ack 40 ------- 0 2.0 0.0 11 25
- 0.289808 5 4 ack 40 ------- 0 2.0 0.0 11 25
r 0.291109 5 2 tcp 1000 ------- 0 0.0 2.0 12 20
+ 0.291109 2 5 ack 40 ------- 0 2.0 0.0 12 26
- 0.291109 2 5 ack 40 ------- 0 2.0 0.0 12 26
r 0.291643 4 5 tcp 1000 ------- 0 0.0 2.0 13 21
+ 0.291643 5 2 tcp 1000 ------- 0 0.0 2.0 13 21
- 0.291643 5 2 tcp 1000 ------- 0 0.0 2.0 13 21
r 0.294021 5 4 ack 40 ------- 0 2.0 0.0 8 22
+ 0.294021 4 0 ack 40 ------- 0 2.0 0.0 8 22
- 0.294021 4 0 ack 40 ------- 0 2.0 0.0 8 22
r 0.295141 2 5 ack 40 ------- 0 2.0 0.0 12 26
+ 0.295141 5 4 ack 40 ------- 0 2.0 0.0 12 26
- 0.295141 5 4 ack 40 ------- 0 2.0 0.0 12 26
r 0.296053 4 0 ack 40 ------- 0 2.0 0.0 8 22
+ 0.296053 0 4 tcp 1000 ------- 0 0.0 2.0 14 27
- 0.296053 0 4 tcp 1000 ------- 0 0.0 2.0 14 27
r 0.296443 5 2 tcp 1000 ------- 0 0.0 2.0 13 21
+ 0.296443 2 5 ack 40 ------- 0 2.0 0.0 13 28
- 0.296443 2 5 ack 40 ------- 0 2.0 0.0 13 28
r 0.298853 0 4 tcp 1000 ------- 0 0.0 2.0 14 27
+ 0.298853 4 5 tcp 1000 ------- 0 0.0 2.0 14 27
- 0.298853 4 5 tcp 1000 ------- 0 0.0 2.0 14 27
r 0.299355 5 4 ack 40 ------- 0 2.0 0.0 9 23
+ 0.299355 4 0 ack 40 ------- 0 2.0 0.0 9 23
- 0.299355 4 0 ack 40 ------- 0 2.0 0.0 9 23
r 0.300475 2 5 ack 40 ------- 0 2.0 0.0 13 28
+ 0.300475 5 4 ack 40 ------- 0 2.0 0.0 13 28
- 0.300475 5 4 ack 40 ------- 0 2.0 0.0 13 28
r 0.301387 4 0 ack 40 ------- 0 2.0 0.0 9 23
+ 0.301387 0 4 tcp 1000 ------- 0 0.0 2.0 15 29
- 0.301387 0 4 tcp 1000 ------- 0 0.0 2.0 15 29
r 0.304187 0 4 tcp 1000 ------- 0 0.0 2.0 15 29
+ 0.304187 4 5 tcp 1000 ------- 0 0.0 2.0 15 29
- 0.304187 4 5 tcp 1000 ------- 0 0.0 2.0 15 29
r 0.304688 5 4 ack 40 ------- 0 2.0 0.0 10 24
+ 0.304688 4 0 ack 40 ------- 0 2.0 0.0 10 24
- 0.304688 4 0 ack 40 ------- 0 2.0 0.0 10 24
r 0.30672 4 0 ack 40 ------- 0 2.0 0.0 10 24
+ 0.30672 0 4 tcp 1000 ------- 0 0.0 2.0 16 30
- 0.30672 0 4 tcp 1000 ------- 0 0.0 2.0 16 30
r 0.30952 0 4 tcp 1000 ------- 0 0.0 2.0 16 30
+ 0.30952 4 5 tcp 1000 ------- 0 0.0 2.0 16 30
- 0.30952 4 5 tcp 1000 ------- 0 0.0 2.0 16 30
r 0.310021 5 4 ack 40 ------- 0 2.0 0.0 11 25
+ 0.310021 4 0 ack 40 ------- 0 2.0 0.0 11 25
- 0.310021 4 0 ack 40 ------- 0 2.0 0.0 11 25
r 0.312053 4 0 ack 40 ------- 0 2.0 0.0 11 25
+ 0.312053 0 4 tcp 1000 ------- 0 0.0 2.0 17 31
- 0.312053 0 4 tcp 1000 ------- 0 0.0 2.0 17 31
r 0.314853 0 4 tcp 1000 ------- 0 0.0 2.0 17 31
+ 0.314853 4 5 tcp 1000 ------- 0 0.0 2.0 17 31
- 0.314853 4 5 tcp 1000 ------- 0 0.0 2.0 17 31
r 0.315355 5 4 ack 40 ------- 0 2.0 0.0 12 26
+ 0.315355 4 0 ack 40 ------- 0 2.0 0.0 12 26
- 0.315355 4 0 ack 40 ------- 0 2.0 0.0 12 26
r 0.317387 4 0 ack 40 ------- 0 2.0 0.0 12 26
+ 0.317387 0 4 tcp 1000 ------- 0 0.0 2.0 18 32
- 0.317387 0 4 tcp 1000 ------- 0 0.0 2.0 18 32
r 0.320187 0 4 tcp 1000 ------- 0 0.0 2.0 18 32
+ 0.320187 4 5 tcp 1000 ------- 0 0.0 2.0 18 32
- 0.320187 4 5 tcp 1000 ------- 0 0.0 2.0 18 32
r 0.320688 5 4 ack 40 ------- 0 2.0 0.0 13 28
+ 0.320688 4 0 ack 40 ------- 0 2.0 0.0 13 28
- 0.320688 4 0 ack 40 ------- 0 2.0 0.0 13 28
r 0.32272 4 0 ack 40 ------- 0 2.0 0.0 13 28
+ 0.32272 0 4 tcp 1000 ------- 0 0.0 2.0 19 33
- 0.32272 0 4 tcp 1000 ------- 0 0.0 2.0 19 33
r 0.324187 4 5 tcp 1000 ------- 0 0.0 2.0 14 27
+ 0.324187 5 2 tcp 1000 ------- 0 0.0 2.0 14 27
- 0.324187 5 2 tcp 1000 ------- 0 0.0 2.0 14 27
r 0.32552 0 4 tcp 1000 ------- 0 0.0 2.0 19 33
+ 0.32552 4 5 tcp 1000 ------- 0 0.0 2.0 19 33
- 0.32552 4 5 tcp 1000 ------- 0 0.0 2.0 19 33
r 0.328987 5 2 tcp 1000 ------- 0 0.0 2.0 14 27
+ 0.328987 2 5 ack 40 ------- 0 2.0 0.0 14 34
- 0.328987 2 5 ack 40 ------- 0 2.0 0.0 14 34
r 0.32952 4 5 tcp 1000 ------- 0 0.0 2.0 15 29
+ 0.32952 5 2 tcp 1000 ------- 0 0.0 2.0 15 29
- 0.32952 5 2 tcp 1000 ------- 0 0.0 2.0 15 29
r 0.333019 2 5 ack 40 ------- 0 2.0 0.0 14 34
+ 0.333019 5 4 ack 40 ------- 0 2.0 0.0 14 34
- 0.333019 5 4 ack 40 ------- 0 2.0 0.0 14 34
r 0.33432 5 2 tcp 1000 ------- 0 0.0 2.0 15 29
+ 0.33432 2 5 ack 40 ------- 0 2.0 0.0 15 35
- 0.33432 2 5 ack 40 ------- 0 2.0 0.0 15 35
r 0.334853 4 5 tcp 1000 ------- 0 0.0 2.0 16 30
+ 0.334853 5 2 tcp 1000 ------- 0 0.0 2.0 16 30
- 0.334853 5 2 tcp 1000 ------- 0 0.0 2.0 16 30
r 0.338352 2 5 ack 40 ------- 0 2.0 0.0 15 35
+ 0.338352 5 4 ack 40 ------- 0 2.0 0.0 15 35
- 0.338352 5 4 ack 40 ------- 0 2.0 0.0 15 35
r 0.339653 5 2 tcp 1000 ------- 0 0.0 2.0 16 30
+ 0.339653 2 5 ack 40 ------- 0 2.0 0.0 16 36
- 0.339653 2 5 ack 40 ------- 0 2.0 0.0 16 36
r 0.340187 4 5 tcp 1000 ------- 0 0.0 2.0 17 31
+ 0.340187 5 2 tcp 1000 ------- 0 0.0 2.0 17 31
- 0.340187 5 2 tcp 1000 ------- 0 0.0 2.0 17 31
r 0.343685 2 5 ack 40 ------- 0 2.0 0.0 16 36
+ 0.343685 5 4 ack 40 ------- 0 2.0 0.0 16 36
- 0.343685 5 4 ack 40 ------- 0 2.0 0.0 16 36
r 0.344987 5 2 tcp 1000 ------- 0 0.0 2.0 17 31
+ 0.344987 2 5 ack 40 ------- 0 2.0 0.0 17 37
- 0.344987 2 5 ack 40 ------- 0 2.0 0.0 17 37
r 0.34552 4 5 tcp 1000 ------- 0 0.0 2.0 18 32
+ 0.34552 5 2 tcp 1000 ------- 0 0.0 2.0 18 32
- 0.34552 5 2 tcp 1000 ------- 0 0.0 2.0 18 32
r 0.349019 2 5 ack 40 ------- 0 2.0 0.0 17 37
+ 0.349019 5 4 ack 40 ------- 0 2.0 0.0 17 37
- 0.349019 5 4 ack 40 ------- 0 2.0 0.0 17 37
r 0.35032 5 2 tcp 1000 ------- 0 0.0 2.0 18 32
+ 0.35032 2 5 ack 40 ------- 0 2.0 0.0 18 38
- 0.35032 2 5 ack 40 ------- 0 2.0 0.0 18 38
r 0.350853 4 5 tcp 1000 ------- 0 0.0 2.0 19 33
+ 0.350853 5 2 tcp 1000 ------- 0 0.0 2.0 19 33
- 0.350853 5 2 tcp 1000 ------- 0 0.0 2.0 19 33
r 0.353232 5 4 ack 40 ------- 0 2.0 0.0 14 34
+ 0.353232 4 0 ack 40 ------- 0 2.0 0.0 14 34
- 0.353232 4 0 ack 40 ------- 0 2.0 0.0 14 34
r 0.354352 2 5 ack 40 ------- 0 2.0 0.0 18 38
+ 0.354352 5 4 ack 40 ------- 0 2.0 0.0 18 38
- 0.354352 5 4 ack 40 ------- 0 2.0 0.0 18 38
r 0.355264 4 0 ack 40 ------- 0 2.0 0.0 14 34
+ 0.355264 0 4 tcp 1000 ------- 0 0.0 2.0 20 39
- 0.355264 0 4 tcp 1000 ------- 0 0.0 2.0 20 39
+ 0.355264 0 4 tcp 1000 ------- 0 0.0 2.0 21 40
r 0.355653 5 2 tcp 1000 ------- 0 0.0 2.0 19 33
+ 0.355653 2 5 ack 40 ------- 0 2.0 0.0 19 41
- 0.355653 2 5 ack 40 ------- 0 2.0 0.0 19 41
- 0.356064 0 4 tcp 1000 ------- 0 0.0 2.0 21 40
r 0.358064 0 4 tcp 1000 ------- 0 0.0 2.0 20 39
+ 0.358064 4 5 tcp 1000 ------- 0 0.0 2.0 20 39
- 0.358064 4 5 tcp 1000 ------- 0 0.0 2.0 20 39
r 0.358565 5 4 ack 40 ------- 0 2.0 0.0 15 35
+ 0.358565 4 0 ack 40 ------- 0 2.0 0.0 15 35
- 0.358565 4 0 ack 40 ------- 0 2.0 0.0 15 35
r 0.358864 0 4 tcp 1000 ------- 0 0.0 2.0 21 40
+ 0.358864 4 5 tcp 1000 ------- 0 0.0 2.0 21 40
r 0.359685 2 5 ack 40 ------- 0 2.0 0.0 19 41
+ 0.359685 5 4 ack 40 ------- 0 2.0 0.0 19 41
- 0.359685 5 4 ack 40 ------- 0 2.0 0.0 19 41
r 0.360597 4 0 ack 40 ------- 0 2.0 0.0 15 35
+ 0.360597 0 4 tcp 1000 ------- 0 0.0 2.0 22 42
- 0.360597 0 4 tcp 1000 ------- 0 0.0 2.0 22 42
+ 0.360597 0 4 tcp 1000 ------- 0 0.0 2.0 23 43
- 0.361397 0 4 tcp 1000 ------- 0 0.0 2.0 23 43
- 0.363397 4 5 tcp 1000 ------- 0 0.0 2.0 21 40
r 0.363397 0 4 tcp 1000 ------- 0 0.0 2.0 22 42
+ 0.363397 4 5 tcp 1000 ------- 0 0.0 2.0 22 42
r 0.363899 5 4 ack 40 ------- 0 2.0 0.0 16 36
+ 0.363899 4 0 ack 40 ------- 0 2.0 0.0 16 36
- 0.363899 4 0 ack 40 ------- 0 2.0 0.0 16 36
r 0.364197 0 4 tcp 1000 ------- 0 0.0 2.0 23 43
+ 0.364197 4 5 tcp 1000 ------- 0 0.0 2.0 23 43
r 0.365931 4 0 ack 40 ------- 0 2.0 0.0 16 36
+ 0.365931 0 4 tcp 1000 ------- 0 0.0 2.0 24 44
- 0.365931 0 4 tcp 1000 ------- 0 0.0 2.0 24 44
+ 0.365931 0 4 tcp 1000 ------- 0 0.0 2.0 25 45
- 0.366731 0 4 tcp 1000 ------- 0 0.0 2.0 25 45
- 0.368731 4 5 tcp 1000 ------- 0 0.0 2.0 22 42
r 0.368731 0 4 tcp 1000 ------- 0 0.0 2.0 24 44
+ 0.368731 4 5 tcp 1000 ------- 0 0.0 2.0 24 44
r 0.369232 5 4 ack 40 ------- 0 2.0 0.0 17 37
+ 0.369232 4 0 ack 40 ------- 0 2.0 0.0 17 37
- 0.369232 4 0 ack 40 ------- 0 2.0 0.0 17 37
r 0.369531 0 4 tcp 1000 ------- 0 0.0 2.0 25 45
+ 0.369531 4 5 tcp 1000 ------- 0 0.0 2.0 25 45
r 0.371264 4 0 ack 40 ------- 0 2.0 0.0 17 37
+ 0.371264 0 4 tcp 1000 ------- 0 0.0 2.0 26 46
- 0.371264 0 4 tcp 1000 ------- 0 0.0 2.0 26 46
+ 0.371264 0 4 tcp 1000 ------- 0 0.0 2.0 27 47
- 0.372064 0 4 tcp 1000 ------- 0 0.0 2.0 27 47
- 0.374064 4 5 tcp 1000 ------- 0 0.0 2.0 23 43
r 0.374064 0 4 tcp 1000 ------- 0 0.0 2.0 26 46
+ 0.374064 4 5 tcp 1000 ------- 0 0.0 2.0 26 46
r 0.374565 5 4 ack 40 ------- 0 2.0 0.0 18 38
+ 0.374565 4 0 ack 40 ------- 0 2.0 0.0 18 38
- 0.374565 4 0 ack 40 ------- 0 2.0 0.0 18 38
r 0.374864 0 4 tcp 1000 ------- 0 0.0 2.0 27 47
+ 0.374864 4 5 tcp 1000 ------- 0 0.0 2.0 27 47
r 0.376597 4 0 ack 40 ------- 0 2.0 0.0 18 38
+ 0.376597 0 4 tcp 1000 ------- 0 0.0 2.0 28 48
- 0.376597 0 4 tcp 1000 ------- 0 0.0 2.0 28 48
+ 0.376597 0 4 tcp 1000 ------- 0 0.0 2.0 29 49
- 0.377397 0 4 tcp 1000 ------- 0 0.0 2.0 29 49
- 0.379397 4 5 tcp 1000 ------- 0 0.0 2.0 24 44
r 0.379397 0 4 tcp 1000 ------- 0 0.0 2.0 28 48
+ 0.379397 4 5 tcp 1000 ------- 0 0.0 2.0 28 48
r 0.379899 5 4 ack 40 ------- 0 2.0 0.0 19 41
+ 0.379899 4 0 ack 40 ------- 0 2.0 0.0 19 41
- 0.379899 4 0 ack 40 ------- 0 2.0 0.0 19 41
r 0.380197 0 4 tcp 1000 ------- 0 0.0 2.0 29 49
+ 0.380197 4 5 tcp 1000 ------- 0 0.0 2.0 29 49
r 0.381931 4 0 ack 40 ------- 0 2.0 0.0 19 41
+ 0.381931 0 4 tcp 1000 ------- 0 0.0 2.0 30 50
- 0.381931 0 4 tcp 1000 ------- 0 0.0 2.0 30 50
+ 0.381931 0 4 tcp 1000 ------- 0 0.0 2.0 31 51
- 0.382731 0 4 tcp 1000 ------- 0 0.0 2.0 31 51
r 0.383397 4 5 tcp 1000 ------- 0 0.0 2.0 20 39
+ 0.383397 5 2 tcp 1000 ------- 0 0.0 2.0 20 39
- 0.383397 5 2 tcp 1000 ------- 0 0.0 2.0 20 39
- 0.384731 4 5 tcp 1000 ------- 0 0.0 2.0 25 45
r 0.384731 0 4 tcp 1000 ------- 0 0.0 2.0 30 50
+ 0.384731 4 5 tcp 1000 ------- 0 0.0 2.0 30 50
r 0.385531 0 4 tcp 1000 ------- 0 0.0 2.0 31 51
+ 0.385531 4 5 tcp 1000 ------- 0 0.0 2.0 31 51
r 0.388197 5 2 tcp 1000 ------- 0 0.0 2.0 20 39
+ 0.388197 2 5 ack 40 ------- 0 2.0 0.0 20 52
- 0.388197 2 5 ack 40 ------- 0 2.0 0.0 20 52
r 0.388731 4 5 tcp 1000 ------- 0 0.0 2.0 21 40
+ 0.388731 5 2 tcp 1000 ------- 0 0.0 2.0 21 40
- 0.388731 5 2 tcp 1000 ------- 0 0.0 2.0 21 40
- 0.390064 4 5 tcp 1000 ------- 0 0.0 2.0 26 46
r 0.392229 2 5 ack 40 ------- 0 2.0 0.0 20 52
+ 0.392229 5 4 ack 40 ------- 0 2.0 0.0 20 52
- 0.392229 5 4 ack 40 ------- 0 2.0 0.0 20 52
r 0.393531 5 2 tcp 1000 ------- 0 0.0 2.0 21 40
+ 0.393531 2 5 ack 40 ------- 0 2.0 0.0 21 53
- 0.393531 2 5 ack 40 ------- 0 2.0 0.0 21 53
r 0.394064 4 5 tcp 1000 ------- 0 0.0 2.0 22 42
+ 0.394064 5 2 tcp 1000 ------- 0 0.0 2.0 22 42
- 0.394064 5 2 tcp 1000 ------- 0 0.0 2.0 22 42
- 0.395397 4 5 tcp 1000 ------- 0 0.0 2.0 27 47
r 0.397563 2 5 ack 40 ------- 0 2.0 0.0 21 53
+ 0.397563 5 4 ack 40 ------- 0 2.0 0.0 21 53
- 0.397563 5 4 ack 40 ------- 0 2.0 0.0 21 53
r 0.398864 5 2 tcp 1000 ------- 0 0.0 2.0 22 42
+ 0.398864 2 5 ack 40 ------- 0 2.0 0.0 22 54
- 0.398864 2 5 ack 40 ------- 0 2.0 0.0 22 54
r 0.399397 4 5 tcp 1000 ------- 0 0.0 2.0 23 43
+ 0.399397 5 2 tcp 1000 ------- 0 0.0 2.0 23 43
- 0.399397 5 2 tcp 1000 ------- 0 0.0 2.0 23 43
- 0.400731 4 5 tcp 1000 ------- 0 0.0 2.0 28 48
r 0.402896 2 5 ack 40 ------- 0 2.0 0.0 22 54
+ 0.402896 5 4 ack 40 ------- 0 2.0 0.0 22 54
- 0.402896 5 4 ack 40 ------- 0 2.0 0.0 22 54
r 0.404197 5 2 tcp 1000 ------- 0 0.0 2.0 23 43
+ 0.404197 2 5 ack 40 ------- 0 2.0 0.0 23 55
- 0.404197 2 5 ack 40 ------- 0 2.0 0.0 23 55
r 0.404731 4 5 tcp 1000 ------- 0 0.0 2.0 24 44
+ 0.404731 5 2 tcp 1000 ------- 0 0.0 2.0 24 44
- 0.404731 5 2 tcp 1000 ------- 0 0.0 2.0 24 44
- 0.406064 4 5 tcp 1000 ------- 0 0.0 2.0 29 49
r 0.408229 2 5 ack 40 ------- 0 2.0 0.0 23 55
+ 0.408229 5 4 ack 40 ------- 0 2.0 0.0 23 55
- 0.408229 5 4 ack 40 ------- 0 2.0 0.0 23 55
r 0.409531 5 2 tcp 1000 ------- 0 0.0 2.0 24 44
+ 0.409531 2 5 ack 40 ------- 0 2.0 0.0 24 56
- 0.409531 2 5 ack 40 ------- 0 2.0 0.0 24 56
r 0.410064 4 5 tcp 1000 ------- 0 0.0 2.0 25 45
+ 0.410064 5 2 tcp 1000 ------- 0 0.0 2.0 25 45
- 0.410064 5 2 tcp 1000 ------- 0 0.0 2.0 25 45
- 0.411397 4 5 tcp 1000 ------- 0 0.0 2.0 30 50
r 0.412443 5 4 ack 40 ------- 0 2.0 0.0 20 52
+ 0.412443 4 0 ack 40 ------- 0 2.0 0.0 20 52
- 0.412443 4 0 ack 40 ------- 0 2.0 0.0 20 52
r 0.413563 2 5 ack 40 ------- 0 2.0 0.0 24 56
+ 0.413563 5 4 ack 40 ------- 0 2.0 0.0 24 56
- 0.413563 5 4 ack 40 ------- 0 2.0 0.0 24 56
r 0.414475 4 0 ack 40 ------- 0 2.0 0.0 20 52
+ 0.414475 0 4 tcp 1000 ------- 0 0.0 2.0 32 57
- 0.414475 0 4 tcp 1000 ------- 0 0.0 2.0 32 57
r 0.414864 5 2 tcp 1000 ------- 0 0.0 2.0 25 45
+ 0.414864 2 5 ack 40 ------- 0 2.0 0.0 25 58
- 0.414864 2 5 ack 40 ------- 0 2.0 0.0 25 58
r 0.415397 4 5 tcp 1000 ------- 0 0.0 2.0 26 46
+ 0.415397 5 2 tcp 1000 ------- 0 0.0 2.0 26 46
- 0.415397 5 2 tcp 1000 ------- 0 0.0 2.0 26 46
- 0.416731 4 5 tcp 1000 ------- 0 0.0 2.0 31 51
r 0.417275 0 4 tcp 1000 ------- 0 0.0 2.0 32 57
+ 0.417275 4 5 tcp 1000 ------- 0 0.0 2.0 32 57
r 0.417776 5 4 ack 40 ------- 0 2.0 0.0 21 53
+ 0.417776 4 0 ack 40 ------- 0 2.0 0.0 21 53
- 0.417776 4 0 ack 40 ------- 0 2.0 0.0 21 53
r 0.418896 2 5 ack 40 ------- 0 2.0 0.0 25 58
+ 0.418896 5 4 ack 40 ------- 0 2.0 0.0 25 58
- 0.418896 5 4 ack 40 ------- 0 2.0 0.0 25 58
r 0.419808 4 0 ack 40 ------- 0 2.0 0.0 21 53
+ 0.419808 0 4 tcp 1000 ------- 0 0.0 2.0 33 59
- 0.419808 0 4 tcp 1000 ------- 0 0.0 2.0 33 59
r 0.420197 5 2 tcp 1000 ------- 0 0.0 2.0 26 46
+ 0.420197 2 5 ack 40 ------- 0 2.0 0.0 26 60
- 0.420197 2 5 ack 40 ------- 0 2.0 0.0 26 60
r 0.420731 4 5 tcp 1000 ------- 0 0.0 2.0 27 47
+ 0.420731 5 2 tcp 1000 ------- 0 0.0 2.0 27 47
- 0.420731 5 2 tcp 1000 ------- 0 0.0 2.0 27 47
- 0.422064 4 5 tcp 1000 ------- 0 0.0 2.0 32 57
r 0.422608 0 4 tcp 1000 ------- 0 0.0 2.0 33 59
+ 0.422608 4 5 tcp 1000 ------- 0 0.0 2.0 33 59
r 0.423109 5 4 ack 40 ------- 0 2.0 0.0 22 54
+ 0.423109 4 0 ack 40 ------- 0 2.0 0.0 22 54
- 0.423109 4 0 ack 40 ------- 0 2.0 0.0 22 54
r 0.424229 2 5 ack 40 ------- 0 2.0 0.0 26 60
+ 0.424229 5 4 ack 40 ------- 0 2.0 0.0 26 60
- 0.424229 5 4 ack 40 ------- 0 2.0 0.0 26 60
r 0.425141 4 0 ack 40 ------- 0 2.0 0.0 22 54
+ 0.425141 0 4 tcp 1000 ------- 0 0.0 2.0 34 61
- 0.425141 0 4 tcp 1000 ------- 0 0.0 2.0 34 61
r 0.425531 5 2 tcp 1000 ------- 0 0.0 2.0 27 47
+ 0.425531 2 5 ack 40 ------- 0 2.0 0.0 27 62
- 0.425531 2 5 ack 40 ------- 0 2.0 0.0 27 62
r 0.426064 4 5 tcp 1000 ------- 0 0.0 2.0 28 48
+ 0.426064 5 2 tcp 1000 ------- 0 0.0 2.0 28 48
- 0.426064 5 2 tcp 1000 ------- 0 0.0 2.0 28 48
- 0.427397 4 5 tcp 1000 ------- 0 0.0 2.0 33 59
r 0.427941 0 4 tcp 1000 ------- 0 0.0 2.0 34 61
+ 0.427941 4 5 tcp 1000 ------- 0 0.0 2.0 34 61
r 0.428443 5 4 ack 40 ------- 0 2.0 0.0 23 55
+ 0.428443 4 0 ack 40 ------- 0 2.0 0.0 23 55
- 0.428443 4 0 ack 40 ------- 0 2.0 0.0 23 55
r 0.429563 2 5 ack 40 ------- 0 2.0 0.0 27 62
+ 0.429563 5 4 ack 40 ------- 0 2.0 0.0 27 62
- 0.429563 5 4 ack 40 ------- 0 2.0 0.0 27 62
r 0.430475 4 0 ack 40 ------- 0 2.0 0.0 23 55
+ 0.430475 0 4 tcp 1000 ------- 0 0.0 2.0 35 63
- 0.430475 0 4 tcp 1000 ------- 0 0.0 2.0 35 63
r 0.430864 5 2 tcp 1000 ------- 0 0.0 2.0 28 48
+ 0.430864 2 5 ack 40 ------- 0 2.0 0.0 28 64
- 0.430864 2 5 ack 40 ------- 0 2.0 0.0 28 64
r 0.431397 4 5 tcp 1000 ------- 0 0.0 2.0 29 49
+ 0.431397 5 2 tcp 1000 ------- 0 0.0 2.0 29 49
- 0.431397 5 2 tcp 1000 ------- 0 0.0 2.0 29 49
- 0.432731 4 5 tcp 1000 ------- 0 0.0 2.0 34 61
r 0.433275 0 4 tcp 1000 ------- 0 0.0 2.0 35 63
+ 0.433275 4 5 tcp 1000 ------- 0 0.0 2.0 35 63
r 0.433776 5 4 ack 40 ------- 0 2.0 0.0 24 56
+ 0.433776 4 0 ack 40 ------- 0 2.0 0.0 24 56
- 0.433776 4 0 ack 40 ------- 0 2.0 0.0 24 56
r 0.434896 2 5 ack 40 ------- 0 2.0 0.0 28 64
+ 0.434896 5 4 ack 40 ------- 0 2.0 0.0 28 64
- 0.434896 5 4 ack 40 ------- 0 2.0 0.0 28 64
r 0.435808 4 0 ack 40 ------- 0 2.0 0.0 24 56
+ 0.435808 0 4 tcp 1000 ------- 0 0.0 2.0 36 65
- 0.435808 0 4 tcp 1000 ------- 0 0.0 2.0 36 65
r 0.436197 5 2 tcp 1000 ------- 0 0.0 2.0 29 49
+ 0.436197 2 5 ack 40 ------- 0 2.0 0.0 29 66
- 0.436197 2 5 ack 40 ------- 0 2.0 0.0 29 66
r 0.436731 4 5 tcp 1000 ------- 0 0.0 2.0 30 50
+ 0.436731 5 2 tcp 1000 ------- 0 0.0 2.0 30 50
- 0.436731 5 2 tcp 1000 ------- 0 0.0 2.0 30 50
- 0.438064 4 5 tcp 1000 ------- 0 0.0 2.0 35 63
r 0.438608 0 4 tcp 1000 ------- 0 0.0 2.0 36 65
+ 0.438608 4 5 tcp 1000 ------- 0 0.0 2.0 36 65
r 0.439109 5 4 ack 40 ------- 0 2.0 0.0 25 58
+ 0.439109 4 0 ack 40 ------- 0 2.0 0.0 25 58
- 0.439109 4 0 ack 40 ------- 0 2.0 0.0 25 58
r 0.440229 2 5 ack 40 ------- 0 2.0 0.0 29 66
+ 0.440229 5 4 ack 40 ------- 0 2.0 0.0 29 66
- 0.440229 5 4 ack 40 ------- 0 2.0 0.0 29 66
r 0.441141 4 0 ack 40 ------- 0 2.0 0.0 25 58
+ 0.441141 0 4 tcp 1000 ------- 0 0.0 2.0 37 67
- 0.441141 0 4 tcp 1000 ------- 0 0.0 2.0 37 67
r 0.441531 5 2 tcp 1000 ------- 0 0.0 2.0 30 50
+ 0.441531 2 5 ack 40 ------- 0 2.0 0.0 30 68
- 0.441531 2 5 ack 40 ------- 0 2.0 0.0 30 68
r 0.442064 4 5 tcp 1000 ------- 0 0.0 2.0 31 51
+ 0.442064 5 2 tcp 1000 ------- 0 0.0 2.0 31 51
- 0.442064 5 2 tcp 1000 ------- 0 0.0 2.0 31 51
- 0.443397 4 5 tcp 1000 ------- 0 0.0 2.0 36 65
r 0.443941 0 4 tcp 1000 ------- 0 0.0 2.0 37 67
+ 0.443941 4 5 tcp 1000 ------- 0 0.0 2.0 37 67
r 0.444443 5 4 ack 40 ------- 0 2.0 0.0 26 60
+ 0.444443 4 0 ack 40 ------- 0 2.0 0.0 26 60
- 0.444443 4 0 ack 40 ------- 0 2.0 0.0 26 60
r 0.445563 2 5 ack 40 ------- 0 2.0 0.0 30 68
+ 0.445563 5 4 ack 40 ------- 0 2.0 0.0 30 68
- 0.445563 5 4 ack 40 ------- 0 2.0 0.0 30 68
r 0.446475 4 0 ack 40 ------- 0 2.0 0.0 26 60
+ 0.446475 0 4 tcp 1000 ------- 0 0.0 2.0 38 69
- 0.446475 0 4 tcp 1000 ------- 0 0.0 2.0 38 69
r 0.446864 5 2 tcp 1000 ------- 0 0.0 2.0 31 51
+ 0.446864 2 5 ack 40 ------- 0 2.0 0.0 31 70
- 0.446864 2 5 ack 40 ------- 0 2.0 0.0 31 70
r 0.447397 4 5 tcp 1000 ------- 0 0.0 2.0 32 57
+ 0.447397 5 2 tcp 1000 ------- 0 0.0 2.0 32 57
- 0.447397 5 2 tcp 1000 ------- 0 0.0 2.0 32 57
- 0.448731 4 5 tcp 1000 ------- 0 0.0 2.0 37 67
r 0.449275 0 4 tcp 1000 ------- 0 0.0 2.0 38 69
+ 0.449275 4 5 tcp 1000 ------- 0 0.0 2.0 38 69
r 0.449776 5 4 ack 40 ------- 0 2.0 0.0 27 62
+ 0.449776 4 0 ack 40 ------- 0 2.0 0.0 27 62
- 0.449776 4 0 ack 40 ------- 0 2.0 0.0 27 62
r 0.450896 2 5 ack 40 ------- 0 2.0 0.0 31 70
+ 0.450896 5 4 ack 40 ------- 0 2.0 0.0 31 70
- 0.450896 5 4 ack 40 ------- 0 2.0 0.0 31 70
r 0.451808 4 0 ack 40 ------- 0 2.0 0.0 27 62
+ 0.451808 0 4 tcp 1000 ------- 0 0.0 2.0 39 71
- 0.451808 0 4 tcp 1000 ------- 0 0.0 2.0 39 71
r 0.452197 5 2 tcp 1000 ------- 0 0.0 2.0 32 57
+ 0.452197 2 5 ack 40 ------- 0 2.0 0.0 32 72
- 0.452197 2 5 ack 40 ------- 0 2.0 0.0 32 72
r 0.452731 4 5 tcp 1000 ------- 0 0.0 2.0 33 59
+ 0.452731 5 2 tcp 1000 ------- 0 0.0 2.0 33 59
- 0.452731 5 2 tcp 1000 ------- 0 0.0 2.0 33 59
- 0.454064 4 5 tcp 1000 ------- 0 0.0 2.0 38 69
r 0.454608 0 4 tcp 1000 ------- 0 0.0 2.0 39 71
+ 0.454608 4 5 tcp 1000 ------- 0 0.0 2.0 39 71
r 0.455109 5 4 ack 40 ------- 0 2.0 0.0 28 64
+ 0.455109 4 0 ack 40 ------- 0 2.0 0.0 28 64
- 0.455109 4 0 ack 40 ------- 0 2.0 0.0 28 64
r 0.456229 2 5 ack 40 ------- 0 2.0 0.0 32 72
+ 0.456229 5 4 ack 40 ------- 0 2.0 0.0 32 72
- 0.456229 5 4 ack 40 ------- 0 2.0 0.0 32 72
r 0.457141 4 0 ack 40 ------- 0 2.0 0.0 28 64
+ 0.457141 0 4 tcp 1000 ------- 0 0.0 2.0 40 73
- 0.457141 0 4 tcp 1000 ------- 0 0.0 2.0 40 73
r 0.457531 5 2 tcp 1000 ------- 0 0.0 2.0 33 59
+ 0.457531 2 5 ack 40 ------- 0 2.0 0.0 33 74
- 0.457531 2 5 ack 40 ------- 0 2.0 0.0 33 74
r 0.458064 4 5 tcp 1000 ------- 0 0.0 2.0 34 61
+ 0.458064 5 2 tcp 1000 ------- 0 0.0 2.0 34 61
- 0.458064 5 2 tcp 1000 ------- 0 0.0 2.0 34 61
- 0.459397 4 5 tcp 1000 ------- 0 0.0 2.0 39 71
r 0.459941 0 4 tcp 1000 ------- 0 0.0 2.0 40 73
+ 0.459941 4 5 tcp 1000 ------- 0 0.0 2.0 40 73
r 0.460443 5 4 ack 40 ------- 0 2.0 0.0 29 66
+ 0.460443 4 0 ack 40 ------- 0 2.0 0.0 29 66
- 0.460443 4 0 ack 40 ------- 0 2.0 0.0 29 66
r 0.461563 2 5 ack 40 ------- 0 2.0 0.0 33 74
+ 0.461563 5 4 ack 40 ------- 0 2.0 0.0 33 74
- 0.461563 5 4 ack 40 ------- 0 2.0 0.0 33 74
r 0.462475 4 0 ack 40 ------- 0 2.0 0.0 29 66
+ 0.462475 0 4 tcp 1000 ------- 0 0.0 2.0 41 75
- 0.462475 0 4 tcp 1000 ------- 0 0.0 2.0 41 75
r 0.462864 5 2 tcp 1000 ------- 0 0.0 2.0 34 61
+ 0.462864 2 5 ack 40 ------- 0 2.0 0.0 34 76
- 0.462864 2 5 ack 40 ------- 0 2.0 0.0 34 76
r 0.463397 4 5 tcp 1000 ------- 0 0.0 2.0 35 63
+ 0.463397 5 2 tcp 1000 ------- 0 0.0 2.0 35 63
- 0.463397 5 2 tcp 1000 ------- 0 0.0 2.0 35 63
- 0.464731 4 5 tcp 1000 ------- 0 0.0 2.0 40 73
r 0.465275 0 4 tcp 1000 ------- 0 0.0 2.0 41 75