V -t * -v 1.0a5 -a 0
A -t * -n 1 -p 0 -o 0x7fffffff -c 30 -a 1
A -t * -h 1 -m 1073741823 -s 0
n -t * -a 4 -s 4 -S UP -v circle -c black -i black
n -t * -a 0 -s 0 -S UP -v circle -c black -i black
n -t * -a 5 -s 5 -S UP -v circle -c black -i black
n -t * -a 1 -s 1 -S UP -v circle -c black -i black
n -t * -a 2 -s 2 -S UP -v circle -c black -i black
n -t * -a 3 -s 3 -S UP -v circle -c black -i black
l -t * -s 0 -d 4 -S UP -r 10000000 -D 0.002 -c black
l -t * -s 1 -d 4 -S UP -r 10000000 -D 0.0030000000000000001 -c black
l -t * -s 4 -d 5 -S UP -r 1500000 -D 0.02 -c black
l -t * -s 2 -d 5 -S UP -r 10000000 -D 0.0040000000000000001 -c black
l -t * -s 3 -d 5 -S UP -r 10000000 -D 0.0050000000000000001 -c black
+ -t 0 -s 0 -d 4 -p tcp -e 1000 -c 0 -i 0 -a 0 -x {0.0 2.0 0 ------- null}
- -t 0 -s 0 -d 4 -p tcp -e 1000 -c 0 -i 0 -a 0 -x {0.0 2.0 0 ------- null}
h -t 0 -s 0 -d 4 -p tcp -e 1000 -c 0 -i 0 -a 0 -x {0.0 2.0 -1 ------- null}
r -t 0.0028 -s 0 -d 4 -p tcp -e 1000 -c 0 -i 0 -a 0 -x {0.0 2.0 0 ------- null}
+ -t 0.0028 -s 4 -d 5 -p tcp -e 1000 -c 0 -i 0 -a 0 -x {0.0 2.0 0 ------- null}
- -t 0.0028 -s 4 -d 5 -p tcp -e 1000 -c 0 -i 0 -a 0 -x {0.0 2.0 0 ------- null}
h -t 0.0028 -s 4 -d 5 -p tcp -e 1000 -c 0 -i 0 -a 0 -x {0.0 2.0 -1 ------- null}
r -t 0.0281333333333333 -s 4 -d 5 -p tcp -e 1000 -c 0 -i 0 -a 0 -x {0.0 2.0 0 ------- null}
+ -t 0.0281333333333333 -s 5 -d 2 -p tcp -e 1000 -c 0 -i 0 -a 0 -x {0.0 2.0 0 ------- null}
- -t 0.0281333333333333 -s 5 -d 2 -p tcp -e 1000 -c 0 -i 0 -a 0 -x {0.0 2.0 0 ------- null}
h -t 0.0281333333333333 -s 5 -d 2 -p tcp -e 1000 -c 0 -i 0 -a 0 -x {0.0 2.0 -1 ------- null}
r -t 0.0329333333333333 -s 5 -d 2 -p tcp -e 1000 -c 0 -i 0 -a 0 -x {0.0 2.0 0 ------- null}
+ -t 0.0329333333333333 -s 2 -d 5 -p ack -e 40 -c 0 -i 1 -a 0 -x {2.0 0.0 0 ------- null}
- -t 0.0329333333333333 -s 2 -d 5 -p ack -e 40 -c 0 -i 1 -a 0 -x {2.0 0.0 0 ------- null}
h -t 0.0329333333333333 -s 2 -d 5 -p ack -e 40 -c 0 -i 1 -a 0 -x {2.0 0.0 -1 ------- null}
r -t 0.0369653333333333 -s 2 -d 5 -p ack -e 40 -c 0 -i 1 -a 0 -x {2.0 0.0 0 ------- null}
+ -t 0.0369653333333333 -s 5 -d 4 -p ack -e 40 -c 0 -i 1 -a 0 -x {2.0 0.0 0 ------- null}
- -t 0.0369653333333333 -s 5 -d 4 -p ack -e 40 -c 0 -i 1 -a 0 -x {2.0 0.0 0 ------- null}
h -t 0.0369653333333333 -s 5 -d 4 -p ack -e 40 -c 0 -i 1 -a 0 -x {2.0 0.0 -1 ------- null}
r -t 0.0571786666666667 -s 5 -d 4 -p ack -e 40 -c 0 -i 1 -a 0 -x {2.0 0.0 0 ------- null}
+ -t 0.0571786666666667 -s 4 -d 0 -p ack -e 40 -c 0 -i 1 -a 0 -x {2.0 0.0 0 ------- null}
- -t 0.0571786666666667 -s 4 -d 0 -p ack -e 40 -c 0 -i 1 -a 0 -x {2.0 0.0 0 ------- null}
h -t 0.0571786666666667 -s 4 -d 0 -p ack -e 40 -c 0 -i 1 -a 0 -x {2.0 0.0 -1 ------- null}
r -t 0.0592106666666667 -s 4 -d 0 -p ack -e 40 -c 0 -i 1 -a 0 -x {2.0 0.0 0 ------- null}
+ -t 0.0592106666666667 -s 0 -d 4 -p tcp -e 1000 -c 0 -i 2 -a 0 -x {0.0 2.0 1 ------- null}
- -t 0.0592106666666667 -s 0 -d 4 -p tcp -e 1000 -c 0 -i 2 -a 0 -x {0.0 2.0 1 ------- null}
h -t 0.0592106666666667 -s 0 -d 4 -p tcp -e 1000 -c 0 -i 2 -a 0 -x {0.0 2.0 -1 ------- null}
r -t 0.0620106666666667 -s 0 -d 4 -p tcp -e 1000 -c 0 -i 2 -a 0 -x {0.0 2.0 1 ------- null}
+ -t 0.0620106666666667 -s 4 -d 5 -p tcp -e 1000 -c 0 -i 2 -a 0 -x {0.0 2.0 1 ------- null}
- -t 0.0620106666666667 -s 4 -d 5 -p tcp -e 1000 -c 0 -i 2 -a 0 -x {0.0 2.0 1 ------- null}
h -t 0.0620106666666667 -s 4 -d 5 -p tcp -e 1000 -c 0 -i 2 -a 0 -x {0.0 2.0 -1 ------- null}
r -t 0.087344 -s 4 -d 5 -p tcp -e 1000 -c 0 -i 2 -a 0 -x {0.0 2.0 1 ------- null}
+ -t 0.087344 -s 5 -d 2 -p tcp -e 1000 -c 0 -i 2 -a 0 -x {0.0 2.0 1 ------- null}
- -t 0.087344 -s 5 -d 2 -p tcp -e 1000 -c 0 -i 2 -a 0 -x {0.0 2.0 1 ------- null}
h -t 0.087344 -s 5 -d 2 -p tcp -e 1000 -c 0 -i 2 -a 0 -x {0.0 2.0 -1 ------- null}
r -t 0.092144 -s 5 -d 2 -p tcp -e 1000 -c 0 -i 2 -a 0 -x {0.0 2.0 1 ------- null}
+ -t 0.092144 -s 2 -d 5 -p ack -e 40 -c 0 -i 3 -a 0 -x {2.0 0.0 1 ------- null}
- -t 0.092144 -s 2 -d 5 -p ack -e 40 -c 0 -i 3 -a 0 -x {2.0 0.0 1 ------- null}
h -t 0.092144 -s 2 -d 5 -p ack -e 40 -c 0 -i 3 -a 0 -x {2.0 0.0 -1 ------- null}
r -t 0.096176 -s 2 -d 5 -p ack -e 40 -c 0 -i 3 -a 0 -x {2.0 0.0 1 ------- null}
+ -t 0.096176 -s 5 -d 4 -p ack -e 40 -c 0 -i 3 -a 0 -x {2.0 0.0 1 ------- null}
- -t 0.096176 -s 5 -d 4 -p ack -e 40 -c 0 -i 3 -a 0 -x {2.0 0.0 1 ------- null}
h -t 0.096176 -s 5 -d 4 -p ack -e 40 -c 0 -i 3 -a 0 -x {2.0 0.0 -1 ------- null}
r -t 0.116389333333333 -s 5 -d 4 -p ack -e 40 -c 0 -i 3 -a 0 -x {2.0 0.0 1 ------- null}
+ -t 0.116389333333333 -s 4 -d 0 -p ack -e 40 -c 0 -i 3 -a 0 -x {2.0 0.0 1 ------- null}
- -t 0.116389333333333 -s 4 -d 0 -p ack -e 40 -c 0 -i 3 -a 0 -x {2.0 0.0 1 ------- null}
h -t 0.116389333333333 -s 4 -d 0 -p ack -e 40 -c 0 -i 3 -a 0 -x {2.0 0.0 -1 ------- null}
r -t 0.118421333333333 -s 4 -d 0 -p ack -e 40 -c 0 -i 3 -a 0 -x {2.0 0.0 1 ------- null}
+ -t 0.118421333333333 -s 0 -d 4 -p tcp -e 1000 -c 0 -i 4 -a 0 -x {0.0 2.0 2 ------- null}
- -t 0.118421333333333 -s 0 -d 4 -p tcp -e 1000 -c 0 -i 4 -a 0 -x {0.0 2.0 2 ------- null}
h -t 0.118421333333333 -s 0 -d 4 -p tcp -e 1000 -c 0 -i 4 -a 0 -x {0.0 2.0 -1 ------- null}
+ -t 0.118421333333333 -s 0 -d 4 -p tcp -e 1000 -c 0 -i 5 -a 0 -x {0.0 2.0 3 ------- null}
+ -t 0.118421333333333 -s 0 -d 4 -p tcp -e 1000 -c 0 -i 6 -a 0 -x {0.0 2.0 4 ------- null}
- -t 0.119221333333333 -s 0 -d 4 -p tcp -e 1000 -c 0 -i 5 -a 0 -x {0.0 2.0 3 ------- null}
h -t 0.119221333333333 -s 0 -d 4 -p tcp -e 1000 -c 0 -i 5 -a 0 -x {0.0 2.0 -1 ------- null}
- -t 0.120021333333333 -s 0 -d 4 -p tcp -e 1000 -c 0 -i 6 -a 0 -x {0.0 2.0 4 ------- null}
h -t 0.120021333333333 -s 0 -d 4 -p tcp -e 1000 -c 0 -i 6 -a 0 -x {0.0 2.0 -1 ------- null}
r -t 0.121221333333333 -s 0 -d 4 -p tcp -e 1000 -c 0 -i 4 -a 0 -x {0.0 2.0 2 ------- null}
+ -t 0.121221333333333 -s 4 -d 5 -p tcp -e 1000 -c 0 -i 4 -a 0 -x {0.0 2.0 2 ------- null}
- -t 0.121221333333333 -s 4 -d 5 -p tcp -e 1000 -c 0 -i 4 -a 0 -x {0.0 2.0 2 ------- null}
h -t 0.121221333333333 -s 4 -d 5 -p tcp -e 1000 -c 0 -i 4 -a 0 -x {0.0 2.0 -1 ------- null}
r -t 0.122021333333333 -s 0 -d 4 -p tcp -e 1000 -c 0 -i 5 -a 0 -x {0.0 2.0 3 ------- null}
+ -t 0.122021333333333 -s 4 -d 5 -p tcp -e 1000 -c 0 -i 5 -a 0 -x {0.0 2.0 3 ------- null}
r -t 0.122821333333333 -s 0 -d 4 -p tcp -e 1000 -c 0 -i 6 -a 0 -x {0.0 2.0 4 ------- null}
+ -t 0.122821333333333 -s 4 -d 5 -p tcp -e 1000 -c 0 -i 6 -a 0 -x {0.0 2.0 4 ------- null}
- -t 0.126554666666667 -s 4 -d 5 -p tcp -e 1000 -c 0 -i 5 -a 0 -x {0.0 2.0 3 ------- null}
h -t 0.126554666666667 -s 4 -d 5 -p tcp -e 1000 -c 0 -i 5 -a 0 -x {0.0 2.0 -1 ------- null}
- -t 0.131888 -s 4 -d 5 -p tcp -e 1000 -c 0 -i 6 -a 0 -x {0.0 2.0 4 ------- null}
h -t 0.131888 -s 4 -d 5 -p tcp -e 1000 -c 0 -i 6 -a 0 -x {0.0 2.0 -1 ------- null}
r -t 0.146554666666667 -s 4 -d 5 -p tcp -e 1000 -c 0 -i 4 -a 0 -x {0.0 2.0 2 ------- null}
+ -t 0.146554666666667 -s 5 -d 2 -p tcp -e 1000 -c 0 -i 4 -a 0 -x {0.0 2.0 2 ------- null}
- -t 0.146554666666667 -s 5 -d 2 -p tcp -e 1000 -c 0 -i 4 -a 0 -x {0.0 2.0 2 ------- null}
h -t 0.146554666666667 -s 5 -d 2 -p tcp -e 1000 -c 0 -i 4 -a 0 -x {0.0 2.0 -1 ------- null}
r -t 0.151354666666667 -s 5 -d 2 -p tcp -e 1000 -c 0 -i 4 -a 0 -x {0.0 2.0 2 ------- null}
+ -t 0.151354666666667 -s 2 -d 5 -p ack -e 40 -c 0 -i 7 -a 0 -x {2.0 0.0 2 ------- null}
- -t 0.151354666666667 -s 2 -d 5 -p ack -e 40 -c 0 -i 7 -a 0 -x {2.0 0.0 2 ------- null}
h -t 0.151354666666667 -s 2 -d 5 -p ack -e 40 -c 0 -i 7 -a 0 -x {2.0 0.0 -1 ------- null}
r -t 0.151888 -s 4 -d 5 -p tcp -e 1000 -c 0 -i 5 -a 0 -x {0.0 2.0 3 ------- null}
+ -t 0.151888 -s 5 -d 2 -p tcp -e 1000 -c 0 -i 5 -a 0 -x {0.0 2.0 3 ------- null}
- -t 0.151888 -s 5 -d 2 -p tcp -e 1000 -c 0 -i 5 -a 0 -x {0.0 2.0 3 ------- null}
h -t 0.151888 -s 5 -d 2 -p tcp -e 1000 -c 0 -i 5 -a 0 -x {0.0 2.0 -1 ------- null}
r -t 0.155386666666667 -s 2 -d 5 -p ack -e 40 -c 0 -i 7 -a 0 -x {2.0 0.0 2 ------- null}
+ -t 0.155386666666667 -s 5 -d 4 -p ack -e 40 -c 0 -i 7 -a 0 -x {2.0 0.0 2 ------- null}
- -t 0.155386666666667 -s 5 -d 4 -p ack -e 40 -c 0 -i 7 -a 0 -x {2.0 0.0 2 ------- null}
h -t 0.155386666666667 -s 5 -d 4 -p ack -e 40 -c 0 -i 7 -a 0 -x {2.0 0.0 -1 ------- null}
r -t 0.156688 -s 5 -d 2 -p tcp -e 1000 -c 0 -i 5 -a 0 -x {0.0 2.0 3 ------- null}
+ -t 0.156688 -s 2 -d 5 -p ack -e 40 -c 0 -i 8 -a 0 -x {2.0 0.0 3 ------- null}
- -t 0.156688 -s 2 -d 5 -p ack -e 40 -c 0 -i 8 -a 0 -x {2.0 0.0 3 ------- null}
h -t 0.156688 -s 2 -d 5 -p ack -e 40 -c 0 -i 8 -a 0 -x {2.0 0.0 -1 ------- null}
r -t 0.157221333333333 -s 4 -d 5 -p tcp -e 1000 -c 0 -i 6 -a 0 -x {0.0 2.0 4 ------- null}
+ -t 0.157221333333333 -s 5 -d 2 -p tcp -e 1000 -c 0 -i 6 -a 0 -x {0.0 2.0 4 ------- null}
- -t 0.157221333333333 -s 5 -d 2 -p tcp -e 1000 -c 0 -i 6 -a 0 -x {0.0 2.0 4 ------- null}
h -t 0.157221333333333 -s 5 -d 2 -p tcp -e 1000 -c 0 -i 6 -a 0 -x {0.0 2.0 -1 ------- null}
r -t 0.16072 -s 2 -d 5 -p ack -e 40 -c 0 -i 8 -a 0 -x {2.0 0.0 3 ------- null}
+ -t 0.16072 -s 5 -d 4 -p ack -e 40 -c 0 -i 8 -a 0 -x {2.0 0.0 3 ------- null}
- -t 0.16072 -s 5 -d 4 -p ack -e 40 -c 0 -i 8 -a 0 -x {2.0 0.0 3 ------- null}
h -t 0.16072 -s 5 -d 4 -p ack -e 40 -c 0 -i 8 -a 0 -x {2.0 0.0 -1 ------- null}
r -t 0.162021333333333 -s 5 -d 2 -p tcp -e 1000 -c 0 -i 6 -a 0 -x {0.0 2.0 4 ------- null}
+ -t 0.162021333333333 -s 2 -d 5 -p ack -e 40 -c 0 -i 9 -a 0 -x {2.0 0.0 4 ------- null}
- -t 0.162021333333333 -s 2 -d 5 -p ack -e 40 -c 0 -i 9 -a 0 -x {2.0 0.0 4 ------- null}
h -t 0.162021333333333 -s 2 -d 5 -p ack -e 40 -c 0 -i 9 -a 0 -x {2.0 0.0 -1 ------- null}
r -t 0.166053333333333 -s 2 -d 5 -p ack -e 40 -c 0 -i 9 -a 0 -x {2.0 0.0 4 ------- null}
+ -t 0.166053333333333 -s 5 -d 4 -p ack -e 40 -c 0 -i 9 -a 0 -x {2.0 0.0 4 ------- null}
- -t 0.166053333333333 -s 5 -d 4 -p ack -e 40 -c 0 -i 9 -a 0 -x {2.0 0.0 4 ------- null}
h -t 0.166053333333333 -s 5 -d 4 -p ack -e 40 -c 0 -i 9 -a 0 -x {2.0 0.0 -1 ------- null}
r -t 0.1756 -s 5 -d 4 -p ack -e 40 -c 0 -i 7 -a 0 -x {2.0 0.0 2 ------- null}
+ -t 0.1756 -s 4 -d 0 -p ack -e 40 -c 0 -i 7 -a 0 -x {2.0 0.0 2 ------- null}
- -t 0.1756 -s 4 -d 0 -p ack -e 40 -c 0 -i 7 -a 0 -x {2.0 0.0 2 ------- null}
h -t 0.1756 -s 4 -d 0 -p ack -e 40 -c 0 -i 7 -a 0 -x {2.0 0.0 -1 ------- null}
r -t 0.177632 -s 4 -d 0 -p ack -e 40 -c 0 -i 7 -a 0 -x {2.0 0.0 2 ------- null}
+ -t 0.177632 -s 0 -d 4 -p tcp -e 1000 -c 0 -i 10 -a 0 -x {0.0 2.0 5 ------- null}
- -t 0.177632 -s 0 -d 4 -p tcp -e 1000 -c 0 -i 10 -a 0 -x {0.0 2.0 5 ------- null}
h -t 0.177632 -s 0 -d 4 -p tcp -e 1000 -c 0 -i 10 -a 0 -x {0.0 2.0 -1 ------- null}
r -t 0.180432 -s 0 -d 4 -p tcp -e 1000 -c 0 -i 10 -a 0 -x {0.0 2.0 5 ------- null}
+ -t 0.180432 -s 4 -d 5 -p tcp -e 1000 -c 0 -i 10 -a 0 -x {0.0 2.0 5 ------- null}
- -t 0.180432 -s 4 -d 5 -p tcp -e 1000 -c 0 -i 10 -a 0 -x {0.0 2.0 5 ------- null}
h -t 0.180432 -s 4 -d 5 -p tcp -e 1000 -c 0 -i 10 -a 0 -x {0.0 2.0 -1 ------- null}
r -t 0.180933333333333 -s 5 -d 4 -p ack -e 40 -c 0 -i 8 -a 0 -x {2.0 0.0 3 ------- null}
+ -t 0.180933333333333 -s 4 -d 0 -p ack -e 40 -c 0 -i 8 -a 0 -x {2.0 0.0 3 ------- null}
- -t 0.180933333333333 -s 4 -d 0 -p ack -e 40 -c 0 -i 8 -a 0 -x {2.0 0.0 3 ------- null}
h -t 0.180933333333333 -s 4 -d 0 -p ack -e 40 -c 0 -i 8 -a 0 -x {2.0 0.0 -1 ------- null}
r -t 0.182965333333333 -s 4 -d 0 -p ack -e 40 -c 0 -i 8 -a 0 -x {2.0 0.0 3 ------- null}
+ -t 0.182965333333333 -s 0 -d 4 -p tcp -e 1000 -c 0 -i 11 -a 0 -x {0.0 2.0 6 ------- null}
- -t 0.182965333333333 -s 0 -d 4 -p tcp -e 1000 -c 0 -i 11 -a 0 -x {0.0 2.0 6 ------- null}
h -t 0.182965333333333 -s 0 -d 4 -p tcp -e 1000 -c 0 -i 11 -a 0 -x {0.0 2.0 -1 ------- null}
r -t 0.185765333333333 -s 0 -d 4 -p tcp -e 1000 -c 0 -i 11 -a 0 -x {0.0 2.0 6 ------- null}
+ -t 0.185765333333333 -s 4 -d 5 -p tcp -e 1000 -c 0 -i 11 -a 0 -x {0.0 2.0 6 ------- null}
- -t 0.185765333333333 -s 4 -d 5 -p tcp -e 1000 -c 0 -i 11 -a 0 -x {0.0 2.0 6 ------- null}
h -t 0.185765333333333 -s 4 -d 5 -p tcp -e 1000 -c 0 -i 11 -a 0 -x {0.0 2.0 -1 ------- null}
r -t 0.186266666666667 -s 5 -d 4 -p ack -e 40 -c 0 -i 9 -a 0 -x {2.0 0.0 4 ------- null}
+ -t 0.186266666666667 -s 4 -d 0 -p ack -e 40 -c 0 -i 9 -a 0 -x {2.0 0.0 4 ------- null}
- -t 0.186266666666667 -s 4 -d 0 -p ack -e 40 -c 0 -i 9 -a 0 -x {2.0 0.0 4 ------- null}
h -t 0.186266666666667 -s 4 -d 0 -p ack -e 40 -c 0 -i 9 -a 0 -x {2.0 0.0 -1 ------- null}
r -t 0.188298666666667 -s 4 -d 0 -p ack -e 40 -c 0 -i 9 -a 0 -x {2.0 0.0 4 ------- null}
+ -t 0.188298666666667 -s 0 -d 4 -p tcp -e 1000 -c 0 -i 12 -a 0 -x {0.0 2.0 7 ------- null}
- -t 0.188298666666667 -s 0 -d 4 -p tcp -e 1000 -c 0 -i 12 -a 0 -x {0.0 2.0 7 ------- null}
h -t 0.188298666666667 -s 0 -d 4 -p tcp -e 1000 -c 0 -i 12 -a 0 -x {0.0 2.0 -1 ------- null}
r -t 0.191098666666667 -s 0 -d 4 -p tcp -e 1000 -c 0 -i 12 -a 0 -x {0.0 2.0 7 ------- null}
+ -t 0.191098666666667 -s 4 -d 5 -p tcp -e 1000 -c 0 -i 12 -a 0 -x {0.0 2.0 7 ------- null}
- -t 0.191098666666667 -s 4 -d 5 -p tcp -e 1000 -c 0 -i 12 -a 0 -x {0.0 2.0 7 ------- null}
h -t 0.191098666666667 -s 4 -d 5 -p tcp -e 1000 -c 0 -i 12 -a 0 -x {0.0 2.0 -1 ------- null}
r -t 0.205765333333333 -s 4 -d 5 -p tcp -e 1000 -c 0 -i 10 -a 0 -x {0.0 2.0 5 ------- null}
+ -t 0.205765333333333 -s 5 -d 2 -p tcp -e 1000 -c 0 -i 10 -a 0 -x {0.0 2.0 5 ------- null}
- -t 0.205765333333333 -s 5 -d 2 -p tcp -e 1000 -c 0 -i 10 -a 0 -x {0.0 2.0 5 ------- null}
h -t 0.205765333333333 -s 5 -d 2 -p tcp -e 1000 -c 0 -i 10 -a 0 -x {0.0 2.0 -1 ------- null}
r -t 0.210565333333333 -s 5 -d 2 -p tcp -e 1000 -c 0 -i 10 -a 0 -x {0.0 2.0 5 ------- null}
+ -t 0.210565333333333 -s 2 -d 5 -p ack -e 40 -c 0 -i 13 -a 0 -x {2.0 0.0 5 ------- null}
- -t 0.210565333333333 -s 2 -d 5 -p ack -e 40 -c 0 -i 13 -a 0 -x {2.0 0.0 5 ------- null}
h -t 0.210565333333333 -s 2 -d 5 -p ack -e 40 -c 0 -i 13 -a 0 -x {2.0 0.0 -1 ------- null}
r -t 0.211098666666667 -s 4 -d 5 -p tcp -e 1000 -c 0 -i 11 -a 0 -x {0.0 2.0 6 ------- null}
+ -t 0.211098666666667 -s 5 -d 2 -p tcp -e 1000 -c 0 -i 11 -a 0 -x {0.0 2.0 6 ------- null}
- -t 0.211098666666667 -s 5 -d 2 -p tcp -e 1000 -c 0 -i 11 -a 0 -x {0.0 2.0 6 ------- null}
h -t 0.211098666666667 -s 5 -d 2 -p tcp -e 1000 -c 0 -i 11 -a 0 -x {0.0 2.0 -1 ------- null}
r -t 0.214597333333333 -s 2 -d 5 -p ack -e 40 -c 0 -i 13 -a 0 -x {2.0 0.0 5 ------- null}
+ -t 0.214597333333333 -s 5 -d 4 -p ack -e 40 -c 0 -i 13 -a 0 -x {2.0 0.0 5 ------- null}
- -t 0.214597333333333 -s 5 -d 4 -p ack -e 40 -c 0 -i 13 -a 0 -x {2.0 0.0 5 ------- null}
h -t 0.214597333333333 -s 5 -d 4 -p ack -e 40 -c 0 -i 13 -a 0 -x {2.0 0.0 -1 ------- null}
r -t 0.215898666666667 -s 5 -d 2 -p tcp -e 1000 -c 0 -i 11 -a 0 -x {0.0 2.0 6 ------- null}
+ -t 0.215898666666667 -s 2 -d 5 -p ack -e 40 -c 0 -i 14 -a 0 -x {2.0 0.0 6 ------- null}
- -t 0.215898666666667 -s 2 -d 5 -p ack -e 40 -c 0 -i 14 -a 0 -x {2.0 0.0 6 ------- null}
h -t 0.215898666666667 -s 2 -d 5 -p ack -e 40 -c 0 -i 14 -a 0 -x {2.0 0.0 -1 ------- null}
r -t 0.216432 -s 4 -d 5 -p tcp -e 1000 -c 0 -i 12 -a 0 -x {0.0 2.0 7 ------- null}
+ -t 0.216432 -s 5 -d 2 -p tcp -e 1000 -c 0 -i 12 -a 0 -x {0.0 2.0 7 ------- null}
- -t 0.216432 -s 5 -d 2 -p tcp -e 1000 -c 0 -i 12 -a 0 -x {0.0 2.0 7 ------- null}
h -t 0.216432 -s 5 -d 2 -p tcp -e 1000 -c 0 -i 12 -a 0 -x {0.0 2.0 -1 ------- null}
r -t 0.219930666666667 -s 2 -d 5 -p ack -e 40 -c 0 -i 14 -a 0 -x {2.0 0.0 6 ------- null}
+ -t 0.219930666666667 -s 5 -d 4 -p ack -e 40 -c 0 -i 14 -a 0 -x {2.0 0.0 6 ------- null}
- -t 0.219930666666667 -s 5 -d 4 -p ack -e 40 -c 0 -i 14 -a 0 -x {2.0 0.0 6 ------- null}
h -t 0.219930666666667 -s 5 -d 4 -p ack -e 40 -c 0 -i 14 -a 0 -x {2.0 0.0 -1 ------- null}
r -t 0.221232 -s 5 -d 2 -p tcp -e 1000 -c 0 -i 12 -a 0 -x {0.0 2.0 7 ------- null}
+ -t 0.221232 -s 2 -d 5 -p ack -e 40 -c 0 -i 15 -a 0 -x {2.0 0.0 7 ------- null}
- -t 0.221232 -s 2 -d 5 -p ack -e 40 -c 0 -i 15 -a 0 -x {2.0 0.0 7 ------- null}
h -t 0.221232 -s 2 -d 5 -p ack -e 40 -c 0 -i 15 -a 0 -x {2.0 0.0 -1 ------- null}
r -t 0.225264 -s 2 -d 5 -p ack -e 40 -c 0 -i 15 -a 0 -x {2.0 0.0 7 ------- null}
+ -t 0.225264 -s 5 -d 4 -p ack -e 40 -c 0 -i 15 -a 0 -x {2.0 0.0 7 ------- null}
- -t 0.225264 -s 5 -d 4 -p ack -e 40 -c 0 -i 15 -a 0 -x {2.0 0.0 7 ------- null}
h -t 0.225264 -s 5 -d 4 -p ack -e 40 -c 0 -i 15 -a 0 -x {2.0 0.0 -1 ------- null}
r -t 0.234810666666667 -s 5 -d 4 -p ack -e 40 -c 0 -i 13 -a 0 -x {2.0 0.0 5 ------- null}
+ -t 0.234810666666667 -s 4 -d 0 -p ack -e 40 -c 0 -i 13 -a 0 -x {2.0 0.0 5 ------- null}
- -t 0.234810666666667 -s 4 -d 0 -p ack -e 40 -c 0 -i 13 -a 0 -x {2.0 0.0 5 ------- null}
h -t 0.234810666666667 -s 4 -d 0 -p ack -e 40 -c 0 -i 13 -a 0 -x {2.0 0.0 -1 ------- null}
r -t 0.236842666666667 -s 4 -d 0 -p ack -e 40 -c 0 -i 13 -a 0 -x {2.0 0.0 5 ------- null}
+ -t 0.236842666666667 -s 0 -d 4 -p tcp -e 1000 -c 0 -i 16 -a 0 -x {0.0 2.0 8 ------- null}
- -t 0.236842666666667 -s 0 -d 4 -p tcp -e 1000 -c 0 -i 16 -a 0 -x {0.0 2.0 8 ------- null}
h -t 0.236842666666667 -s 0 -d 4 -p tcp -e 1000 -c 0 -i 16 -a 0 -x {0.0 2.0 -1 ------- null}
+ -t 0.236842666666667 -s 0 -d 4 -p tcp -e 1000 -c 0 -i 17 -a 0 -x {0.0 2.0 9 ------- null}
- -t 0.237642666666667 -s 0 -d 4 -p tcp -e 1000 -c 0 -i 17 -a 0 -x {0.0 2.0 9 ------- null}
h -t 0.237642666666667 -s 0 -d 4 -p tcp -e 1000 -c 0 -i 17 -a 0 -x {0.0 2.0 -1 ------- null}
r -t 0.239642666666667 -s 0 -d 4 -p tcp -e 1000 -c 0 -i 16 -a 0 -x {0.0 2.0 8 ------- null}
+ -t 0.239642666666667 -s 4 -d 5 -p tcp -e 1000 -c 0 -i 16 -a 0 -x {0.0 2.0 8 ------- null}
- -t 0.239642666666667 -s 4 -d 5 -p tcp -e 1000 -c 0 -i 16 -a 0 -x {0.0 2.0 8 ------- null}
h -t 0.239642666666667 -s 4 -d 5 -p tcp -e 1000 -c 0 -i 16 -a 0 -x {0.0 2.0 -1 ------- null}
r -t 0.240144 -s 5 -d 4 -p ack -e 40 -c 0 -i 14 -a 0 -x {2.0 0.0 6 ------- null}
+ -t 0.240144 -s 4 -d 0 -p ack -e 40 -c 0 -i 14 -a 0 -x {2.0 0.0 6 ------- null}
- -t 0.240144 -s 4 -d 0 -p ack -e 40 -c 0 -i 14 -a 0 -x {2.0 0.0 6 ------- null}
h -t 0.240144 -s 4 -d 0 -p ack -e 40 -c 0 -i 14 -a 0 -x {2.0 0.0 -1 ------- null}
r -t 0.240442666666667 -s 0 -d 4 -p tcp -e 1000 -c 0 -i 17 -a 0 -x {0.0 2.0 9 ------- null}
+ -t 0.240442666666667 -s 4 -d 5 -p tcp -e 1000 -c 0 -i 17 -a 0 -x {0.0 2.0 9 ------- null}
r -t 0.242176 -s 4 -d 0 -p ack -e 40 -c 0 -i 14 -a 0 -x {2.0 0.0 6 ------- null}
+ -t 0.242176 -s 0 -d 4 -p tcp -e 1000 -c 0 -i 18 -a 0 -x {0.0 2.0 10 ------- null}
- -t 0.242176 -s 0 -d 4 -p tcp -e 1000 -c 0 -i 18 -a 0 -x {0.0 2.0 10 ------- null}
h -t 0.242176 -s 0 -d 4 -p tcp -e 1000 -c 0 -i 18 -a 0 -x {0.0 2.0 -1 ------- null}
+ -t 0.242176 -s 0 -d 4 -p tcp -e 1000 -c 0 -i 19 -a 0 -x {0.0 2.0 11 ------- null}
- -t 0.242976 -s 0 -d 4 -p tcp -e 1000 -c 0 -i 19 -a 0 -x {0.0 2.0 11 ------- null}
h -t 0.242976 -s 0 -d 4 -p tcp -e 1000 -c 0 -i 19 -a 0 -x {0.0 2.0 -1 ------- null}
- -t 0.244976 -s 4 -d 5 -p tcp -e 1000 -c 0 -i 17 -a 0 -x {0.0 2.0 9 ------- null}
h -t 0.244976 -s 4 -d 5 -p tcp -e 1000 -c 0 -i 17 -a 0 -x {0.0 2.0 -1 ------- null}
r -t 0.244976 -s 0 -d 4 -p tcp -e 1000 -c 0 -i 18 -a 0 -x {0.0 2.0 10 ------- null}
+ -t 0.244976 -s 4 -d 5 -p tcp -e 1000 -c 0 -i 18 -a 0 -x {0.0 2.0 10 ------- null}
r -t 0.245477333333333 -s 5 -d 4 -p ack -e 40 -c 0 -i 15 -a 0 -x {2.0 0.0 7 ------- null}
+ -t 0.245477333333333 -s 4 -d 0 -p ack -e 40 -c 0 -i 15 -a 0 -x {2.0 0.0 7 ------- null}
- -t 0.245477333333333 -s 4 -d 0 -p ack -e 40 -c 0 -i 15 -a 0 -x {2.0 0.0 7 ------- null}
h -t 0.245477333333333 -s 4 -d 0 -p ack -e 40 -c 0 -i 15 -a 0 -x {2.0 0.0 -1 ------- null}
r -t 0.245776 -s 0 -d 4 -p tcp -e 1000 -c 0 -i 19 -a 0 -x {0.0 2.0 11 ------- null}
+ -t 0.245776 -s 4 -d 5 -p tcp -e 1000 -c 0 -i 19 -a 0 -x {0.0 2.0 11 ------- null}
r -t 0.247509333333333 -s 4 -d 0 -p ack -e 40 -c 0 -i 15 -a 0 -x {2.0 0.0 7 ------- null}
+ -t 0.247509333333333 -s 0 -d 4 -p tcp -e 1000 -c 0 -i 20 -a 0 -x {0.0 2.0 12 ------- null}
- -t 0.247509333333333 -s 0 -d 4 -p tcp -e 1000 -c 0 -i 20 -a 0 -x {0.0 2.0 12 ------- null}
h -t 0.247509333333333 -s 0 -d 4 -p tcp -e 1000 -c 0 -i 20 -a 0 -x {0.0 2.0 -1 ------- null}
+ -t 0.247509333333333 -s 0 -d 4 -p tcp -e 1000 -c 0 -i 21 -a 0 -x {0.0 2.0 13 ------- null}
- -t 0.248309333333333 -s 0 -d 4 -p tcp -e 1000 -c 0 -i 21 -a 0 -x {0.0 2.0 13 ------- null}
h -t 0.248309333333333 -s 0 -d 4 -p tcp -e 1000 -c 0 -i 21 -a 0 -x {0.0 2.0 -1 ------- null}
- -t 0.250309333333333 -s 4 -d 5 -p tcp -e 1000 -c 0 -i 18 -a 0 -x {0.0 2.0 10 ------- null}
h -t 0.250309333333333 -s 4 -d 5 -p tcp -e 1000 -c 0 -i 18 -a 0 -x {0.0 2.0 -1 ------- null}
r -t 0.250309333333333 -s 0 -d 4 -p tcp -e 1000 -c 0 -i 20 -a 0 -x {0.0 2.0 12 ------- null}
+ -t 0.250309333333333 -s 4 -d 5 -p tcp -e 1000 -c 0 -i 20 -a 0 -x {0.0 2.0 12 ------- null}
r -t 0.251109333333333 -s 0 -d 4 -p tcp -e 1000 -c 0 -i 21 -a 0 -x {0.0 2.0 13 ------- null}
+ -t 0.251109333333333 -s 4 -d 5 -p tcp -e 1000 -c 0 -i 21 -a 0 -x {0.0 2.0 13 ------- null}
- -t 0.255642666666667 -s 4 -d 5 -p tcp -e 1000 -c 0 -i 19 -a 0 -x {0.0 2.0 11 ------- null}
h -t 0.255642666666667 -s 4 -d 5 -p tcp -e 1000 -c 0 -i 19 -a 0 -x {0.0 2.0 -1 ------- null}
- -t 0.260976 -s 4 -d 5 -p tcp -e 1000 -c 0 -i 20 -a 0 -x {0.0 2.0 12 ------- null}
h -t 0.260976 -s 4 -d 5 -p tcp -e 1000 -c 0 -i 20 -a 0 -x {0.0 2.0 -1 ------- null}
r -t 0.264976 -s 4 -d 5 -p tcp -e 1000 -c 0 -i 16 -a 0 -x {0.0 2.0 8 ------- null}
+ -t 0.264976 -s 5 -d 2 -p tcp -e 1000 -c 0 -i 16 -a 0 -x {0.0 2.0 8 ------- null}
- -t 0.264976 -s 5 -d 2 -p tcp -e 1000 -c 0 -i 16 -a 0 -x {0.0 2.0 8 ------- null}
h -t 0.264976 -s 5 -d 2 -p tcp -e 1000 -c 0 -i 16 -a 0 -x {0.0 2.0 -1 ------- null}
- -t 0.266309333333333 -s 4 -d 5 -p tcp -e 1000 -c 0 -i 21 -a 0 -x {0.0 2.0 13 ------- null}
h -t 0.266309333333333 -s 4 -d 5 -p tcp -e 1000 -c 0 -i 21 -a 0 -x {0.0 2.0 -1 ------- null}
r -t 0.269776 -s 5 -d 2 -p tcp -e 1000 -c 0 -i 16 -a 0 -x {0.0 2.0 8 ------- null}
+ -t 0.269776 -s 2 -d 5 -p ack -e 40 -c 0 -i 22 -a 0 -x {2.0 0.0 8 ------- null}
- -t 0.269776 -s 2 -d 5 -p ack -e 40 -c 0 -i 22 -a 0 -x {2.0 0.0 8 ------- null}
h -t 0.269776 -s 2 -d 5 -p ack -e 40 -c 0 -i 22 -a 0 -x {2.0 0.0 -1 ------- null}
r -t 0.270309333333333 -s 4 -d 5 -p tcp -e 1000 -c 0 -i 17 -a 0 -x {0.0 2.0 9 ------- null}
+ -t 0.270309333333333 -s 5 -d 2 -p tcp -e 1000 -c 0 -i 17 -a 0 -x {0.0 2.0 9 ------- null}
- -t 0.270309333333333 -s 5 -d 2 -p tcp -e 1000 -c 0 -i 17 -a 0 -x {0.0 2.0 9 ------- null}
h -t 0.270309333333333 -s 5 -d 2 -p tcp -e 1000 -c 0 -i 17 -a 0 -x {0.0 2.0 -1 ------- null}
r -t 0.273808 -s 2 -d 5 -p ack -e 40 -c 0 -i 22 -a 0 -x {2.0 0.0 8 ------- null}
+ -t 0.273808 -s 5 -d 4 -p ack -e 40 -c 0 -i 22 -a 0 -x {2.0 0.0 8 ------- null}
- -t 0.273808 -s 5 -d 4 -p ack -e 40 -c 0 -i 22 -a 0 -x {2.0 0.0 8 ------- null}
h -t 0.273808 -s 5 -d 4 -p ack -e 40 -c 0 -i 22 -a 0 -x {2.0 0.0 -1 ------- null}
r -t 0.275109333333333 -s 5 -d 2 -p tcp -e 1000 -c 0 -i 17 -a 0 -x {0.0 2.0 9 ------- null}
+ -t 0.275109333333333 -s 2 -d 5 -p ack -e 40 -c 0 -i 23 -a 0 -x {2.0 0.0 9 ------- null}
- -t 0.275109333333333 -s 2 -d 5 -p ack -e 40 -c 0 -i 23 -a 0 -x {2.0 0.0 9 ------- null}
h -t 0.275109333333333 -s 2 -d 5 -p ack -e 40 -c 0 -i 23 -a 0 -x {2.0 0.0 -1 ------- null}
r -t 0.275642666666667 -s 4 -d 5 -p tcp -e 1000 -c 0 -i 18 -a 0 -x {0.0 2.0 10 ------- null}
+ -t 0.275642666666667 -s 5 -d 2 -p tcp -e 1000 -c 0 -i 18 -a 0 -x {0.0 2.0 10 ------- null}
- -t 0.275642666666667 -s 5 -d 2 -p tcp -e 1000 -c 0 -i 18 -a 0 -x {0.0 2.0 10 ------- null}
h -t 0.275642666666667 -s 5 -d 2 -p tcp -e 1000 -c 0 -i 18 -a 0 -x {0.0 2.0 -1 ------- null}
r -t 0.279141333333333 -s 2 -d 5 -p ack -e 40 -c 0 -i 23 -a 0 -x {2.0 0.0 9 ------- null}
+ -t 0.279141333333333 -s 5 -d 4 -p ack -e 40 -c 0 -i 23 -a 0 -x {2.0 0.0 9 ------- null}
- -t 0.279141333333333 -s 5 -d 4 -p ack -e 40 -c 0 -i 23 -a 0 -x {2.0 0.0 9 ------- null}
h -t 0.279141333333333 -s 5 -d 4 -p ack -e 40 -c 0 -i 23 -a 0 -x {2.0 0.0 -1 ------- null}
r -t 0.280442666666667 -s 5 -d 2 -p tcp -e 1000 -c 0 -i 18 -a 0 -x {0.0 2.0 10 ------- null}
+ -t 0.280442666666667 -s 2 -d 5 -p ack -e 40 -c 0 -i 24 -a 0 -x {2.0 0.0 10 ------- null}
- -t 0.280442666666667 -s 2 -d 5 -p ack -e 40 -c 0 -i 24 -a 0 -x {2.0 0.0 10 ------- null}
h -t 0.280442666666667 -s 2 -d 5 -p ack -e 40 -c 0 -i 24 -a 0 -x {2.0 0.0 -1 ------- null}
r -t 0.280976 -s 4 -d 5 -p tcp -e 1000 -c 0 -i 19 -a 0 -x {0.0 2.0 11 ------- null}
+ -t 0.280976 -s 5 -d 2 -p tcp -e 1000 -c 0 -i 19 -a 0 -x {0.0 2.0 11 ------- null}
- -t 0.280976 -s 5 -d 2 -p tcp -e 1000 -c 0 -i 19 -a 0 -x {0.0 2.0 11 ------- null}
h -t 0.280976 -s 5 -d 2 -p tcp -e 1000 -c 0 -i 19 -a 0 -x {0.0 2.0 -1 ------- null}
r -t 0.284474666666667 -s 2 -d 5 -p ack -e 40 -c 0 -i 24 -a 0 -x {2.0 0.0 10 ------- null}
+ -t 0.284474666666667 -s 5 -d 4 -p ack -e 40 -c 0 -i 24 -a 0 -x {2.0 0.0 10 ------- null}
- -t 0.284474666666667 -s 5 -d 4 -p ack -e 40 -c 0 -i 24 -a 0 -x {2.0 0.0 10 ------- null}
h -t 0.284474666666667 -s 5 -d 4 -p ack -e 40 -c 0 -i 24 -a 0 -x {2.0 0.0 -1 ------- null}
r -t 0.285776 -s 5 -d 2 -p tcp -e 1000 -c 0 -i 19 -a 0 -x {0.0 2.0 11 ------- null}
+ -t 0.285776 -s 2 -d 5 -p ack -e 40 -c 0 -i 25 -a 0 -x {2.0 0.0 11 ------- null}
- -t 0.285776 -s 2 -d 5 -p ack -e 40 -c 0 -i 25 -a 0 -x {2.0 0.0 11 ------- null}
h -t 0.285776 -s 2 -d 5 -p ack -e 40 -c 0 -i 25 -a 0 -x {2.0 0.0 -1 ------- null}
r -t 0.286309333333333 -s 4 -d 5 -p tcp -e 1000 -c 0 -i 20 -a 0 -x {0.0 2.0 12 ------- null}
+ -t 0.286309333333333 -s 5 -d 2 -p tcp -e 1000 -c 0 -i 20 -a 0 -x {0.0 2.0 12 ------- null}
- -t 0.286309333333333 -s 5 -d 2 -p tcp -e 1000 -c 0 -i 20 -a 0 -x {0.0 2.0 12 ------- null}
h -t 0.286309333333333 -s 5 -d 2 -p tcp -e 1000 -c 0 -i 20 -a 0 -x {0.0 2.0 -1 ------- null}
r -t 0.289808 -s 2 -d 5 -p ack -e 40 -c 0 -i 25 -a 0 -x {2.0 0.0 11 ------- null}
+ -t 0.289808 -s 5 -d 4 -p ack -e 40 -c 0 -i 25 -a 0 -x {2.0 0.0 11 ------- null}
- -t 0.289808 -s 5 -d 4 -p ack -e 40 -c 0 -i 25 -a 0 -x {2.0 0.0 11 ------- null}
h -t 0.289808 -s 5 -d 4 -p ack -e 40 -c 0 -i 25 -a 0 -x {2.0 0.0 -1 ------- null}
r -t 0.291109333333333 -s 5 -d 2 -p tcp -e 1000 -c 0 -i 20 -a 0 -x {0.0 2.0 12 ------- null}
+ -t 0.291109333333333 -s 2 -d 5 -p ack -e 40 -c 0 -i 26 -a 0 -x {2.0 0.0 12 ------- null}
- -t 0.291109333333333 -s 2 -d 5 -p ack -e 40 -c 0 -i 26 -a 0 -x {2.0 0.0 12 ------- null}
h -t 0.291109333333333 -s 2 -d 5 -p ack -e 40 -c 0 -i 26 -a 0 -x {2.0 0.0 -1 ------- null}
r -t 0.291642666666667 -s 4 -d 5 -p tcp -e 1000 -c 0 -i 21 -a 0 -x {0.0 2.0 13 ------- null}
+ -t 0.291642666666667 -s 5 -d 2 -p tcp -e 1000 -c 0 -i 21 -a 0 -x {0.0 2.0 13 ------- null}
- -t 0.291642666666667 -s 5 -d 2 -p tcp -e 1000 -c 0 -i 21 -a 0 -x {0.0 2.0 13 ------- null}
h -t 0.291642666666667 -s 5 -d 2 -p tcp -e 1000 -c 0 -i 21 -a 0 -x {0.0 2.0 -1 ------- null}
r -t 0.294021333333333 -s 5 -d 4 -p ack -e 40 -c 0 -i 22 -a 0 -x {2.0 0.0 8 ------- null}
+ -t 0.294021333333333 -s 4 -d 0 -p ack -e 40 -c 0 -i 22 -a 0 -x {2.0 0.0 8 ------- null}
- -t 0.294021333333333 -s 4 -d 0 -p ack -e 40 -c 0 -i 22 -a 0 -x {2.0 0.0 8 ------- null}
h -t 0.294021333333333 -s 4 -d 0 -p ack -e 40 -c 0 -i 22 -a 0 -x {2.0 0.0 -1 ------- null}
r -t 0.295141333333333 -s 2 -d 5 -p ack -e 40 -c 0 -i 26 -a 0 -x {2.0 0.0 12 ------- null}
+ -t 0.295141333333333 -s 5 -d 4 -p ack -e 40 -c 0 -i 26 -a 0 -x {2.0 0.0 12 ------- null}
- -t 0.295141333333333 -s 5 -d 4 -p ack -e 40 -c 0 -i 26 -a 0 -x {2.0 0.0 12 ------- null}
h -t 0.295141333333333 -s 5 -d 4 -p ack -e 40 -c 0 -i 26 -a 0 -x {2.0 0.0 -1 ------- null}
r -t 0.296053333333333 -s 4 -d 0 -p ack -e 40 -c 0 -i 22 -a 0 -x {2.0 0.0 8 ------- null}
+ -t 0.296053333333333 -s 0 -d 4 -p tcp -e 1000 -c 0 -i 27 -a 0 -x {0.0 2.0 14 ------- null}
- -t 0.296053333333333 -s 0 -d 4 -p tcp -e 1000 -c 0 -i 27 -a 0 -x {0.0 2.0 14 ------- null}
h -t 0.296053333333333 -s 0 -d 4 -p tcp -e 1000 -c 0 -i 27 -a 0 -x {0.0 2.0 -1 ------- null}
r -t 0.296442666666667 -s 5 -d 2 -p tcp -e 1000 -c 0 -i 21 -a 0 -x {0.0 2.0 13 ------- null}
+ -t 0.296442666666667 -s 2 -d 5 -p ack -e 40 -c 0 -i 28 -a 0 -x {2.0 0.0 13 ------- null}
- -t 0.296442666666667 -s 2 -d 5 -p ack -e 40 -c 0 -i 28 -a 0 -x {2.0 0.0 13 ------- null}
h -t 0.296442666666667 -s 2 -d 5 -p ack -e 40 -c 0 -i 28 -a 0 -x {2.0 0.0 -1 ------- null}
r -t 0.298853333333333 -s 0 -d 4 -p tcp -e 1000 -c 0 -i 27 -a 0 -x {0.0 2.0 14 ------- null}
+ -t 0.298853333333333 -s 4 -d 5 -p tcp -e 1000 -c 0 -i 27 -a 0 -x {0.0 2.0 14 ------- null}
- -t 0.298853333333333 -s 4 -d 5 -p tcp -e 1000 -c 0 -i 27 -a 0 -x {0.0 2.0 14 ------- null}
h -t 0.298853333333333 -s 4 -d 5 -p tcp -e 1000 -c 0 -i 27 -a 0 -x {0.0 2.0 -1 ------- null}
r -t 0.299354666666667 -s 5 -d 4 -p ack -e 40 -c 0 -i 23 -a 0 -x {2.0 0.0 9 ------- null}
+ -t 0.299354666666667 -s 4 -d 0 -p ack -e 40 -c 0 -i 23 -a 0 -x {2.0 0.0 9 ------- null}
- -t 0.299354666666667 -s 4 -d 0 -p ack -e 40 -c 0 -i 23 -a 0 -x {2.0 0.0 9 ------- null}
h -t 0.299354666666667 -s 4 -d 0 -p ack -e 40 -c 0 -i 23 -a 0 -x {2.0 0.0 -1 ------- null}
r -t 0.300474666666667 -s 2 -d 5 -p ack -e 40 -c 0 -i 28 -a 0 -x {2.0 0.0 13 ------- null}
+ -t 0.300474666666667 -s 5 -d 4 -p ack -e 40 -c 0 -i 28 -a 0 -x {2.0 0.0 13 ------- null}
- -t 0.300474666666667 -s 5 -d 4 -p ack -e 40 -c 0 -i 28 -a 0 -x {2.0 0.0 13 ------- null}
h -t 0.300474666666667 -s 5 -d 4 -p ack -e 40 -c 0 -i 28 -a 0 -x {2.0 0.0 -1 ------- null}
r -t 0.301386666666667 -s 4 -d 0 -p ack -e 40 -c 0 -i 23 -a 0 -x {2.0 0.0 9 ------- null}
+ -t 0.301386666666667 -s 0 -d 4 -p tcp -e 1000 -c 0 -i 29 -a 0 -x {0.0 2.0 15 ------- null}
- -t 0.301386666666667 -s 0 -d 4 -p tcp -e 1000 -c 0 -i 29 -a 0 -x {0.0 2.0 15 ------- null}
h -t 0.301386666666667 -s 0 -d 4 -p tcp -e 1000 -c 0 -i 29 -a 0 -x {0.0 2.0 -1 ------- null}
r -t 0.304186666666667 -s 0 -d 4 -p tcp -e 1000 -c 0 -i 29 -a 0 -x {0.0 2.0 15 ------- null}
+ -t 0.304186666666667 -s 4 -d 5 -p tcp -e 1000 -c 0 -i 29 -a 0 -x {0.0 2.0 15 ------- null}
- -t 0.304186666666667 -s 4 -d 5 -p tcp -e 1000 -c 0 -i 29 -a 0 -x {0.0 2.0 15 ------- null}
h -t 0.304186666666667 -s 4 -d 5 -p tcp -e 1000 -c 0 -i 29 -a 0 -x {0.0 2.0 -1 ------- null}
r -t 0.304688 -s 5 -d 4 -p ack -e 40 -c 0 -i 24 -a 0 -x {2.0 0.0 10 ------- null}